 Entering Link 1 = C:\G09W\l1.exe PID=      4136.
  
 Copyright (c) 1988,1990,1992,1993,1995,1998,2003,2009, Gaussian, Inc.
                  All Rights Reserved.
  
 This is part of the Gaussian(R) 09 program.  It is based on
 the Gaussian(R) 03 system (copyright 2003, Gaussian, Inc.),
 the Gaussian(R) 98 system (copyright 1998, Gaussian, Inc.),
 the Gaussian(R) 94 system (copyright 1995, Gaussian, Inc.),
 the Gaussian 92(TM) system (copyright 1992, Gaussian, Inc.),
 the Gaussian 90(TM) system (copyright 1990, Gaussian, Inc.),
 the Gaussian 88(TM) system (copyright 1988, Gaussian, Inc.),
 the Gaussian 86(TM) system (copyright 1986, Carnegie Mellon
 University), and the Gaussian 82(TM) system (copyright 1983,
 Carnegie Mellon University). Gaussian is a federally registered
 trademark of Gaussian, Inc.
  
 This software contains proprietary and confidential information,
 including trade secrets, belonging to Gaussian, Inc.
  
 This software is provided under written license and may be
 used, copied, transmitted, or stored only in accord with that
 written license.
  
 The following legend is applicable only to US Government
 contracts under FAR:
  
                    RESTRICTED RIGHTS LEGEND
  
 Use, reproduction and disclosure by the US Government is
 subject to restrictions as set forth in subparagraphs (a)
 and (c) of the Commercial Computer Software - Restricted
 Rights clause in FAR 52.227-19.
  
 Gaussian, Inc.
 340 Quinnipiac St., Bldg. 40, Wallingford CT 06492
  
  
 ---------------------------------------------------------------
 Warning -- This program may not be used in any manner that
 competes with the business of Gaussian, Inc. or will provide
 assistance to any competitor of Gaussian, Inc.  The licensee
 of this program is prohibited from giving any competitor of
 Gaussian, Inc. access to this program.  By using this program,
 the user acknowledges that Gaussian, Inc. is engaged in the
 business of creating and licensing software in the field of
 computational chemistry and represents and warrants to the
 licensee that it is not a competitor of Gaussian, Inc. and that
 it will not use this program in any manner prohibited above.
 ---------------------------------------------------------------
  

 Cite this work as:
 Gaussian 09, Revision A.02,
 M. J. Frisch, G. W. Trucks, H. B. Schlegel, G. E. Scuseria, 
 M. A. Robb, J. R. Cheeseman, G. Scalmani, V. Barone, B. Mennucci, 
 G. A. Petersson, H. Nakatsuji, M. Caricato, X. Li, H. P. Hratchian, 
 A. F. Izmaylov, J. Bloino, G. Zheng, J. L. Sonnenberg, M. Hada, 
 M. Ehara, K. Toyota, R. Fukuda, J. Hasegawa, M. Ishida, T. Nakajima, 
 Y. Honda, O. Kitao, H. Nakai, T. Vreven, J. A. Montgomery, Jr., 
 J. E. Peralta, F. Ogliaro, M. Bearpark, J. J. Heyd, E. Brothers, 
 K. N. Kudin, V. N. Staroverov, R. Kobayashi, J. Normand, 
 K. Raghavachari, A. Rendell, J. C. Burant, S. S. Iyengar, J. Tomasi, 
 M. Cossi, N. Rega, J. M. Millam, M. Klene, J. E. Knox, J. B. Cross, 
 V. Bakken, C. Adamo, J. Jaramillo, R. Gomperts, R. E. Stratmann, 
 O. Yazyev, A. J. Austin, R. Cammi, C. Pomelli, J. W. Ochterski, 
 R. L. Martin, K. Morokuma, V. G. Zakrzewski, G. A. Voth, 
 P. Salvador, J. J. Dannenberg, S. Dapprich, A. D. Daniels, 
 O. Farkas, J. B. Foresman, J. V. Ortiz, J. Cioslowski, 
 and D. J. Fox, Gaussian, Inc., Wallingford CT, 2009.
 
 ******************************************
 Gaussian 09:  IA32W-G09RevA.02 11-Jun-2009
                30-Sep-2021 
 ******************************************
 %mem=98MW
 ------------------------------
 # opt freq wb97xd/6-311+g(d,p)
 ------------------------------
 1/14=-1,18=20,19=15,26=3,38=1/1,3;
 2/9=110,12=2,17=6,18=5,40=1/2;
 3/5=4,6=6,7=111,11=2,16=1,25=1,30=1,71=1,74=-58/1,2,3;
 4//1;
 5/5=2,38=5/2;
 6/7=2,8=2,9=2,10=2,28=1/1;
 7//1,2,3,16;
 1/14=-1,18=20,19=15/3(2);
 2/9=110/2;
 99//99;
 2/9=110/2;
 3/5=4,6=6,7=111,11=2,16=1,25=1,30=1,71=1,74=-58/1,2,3;
 4/5=5,16=3/1;
 5/5=2,38=5/2;
 7//1,2,3,16;
 1/14=-1,18=20,19=15/3(-5);
 2/9=110/2;
 6/7=2,8=2,9=2,10=2,19=2,28=1/1;
 99/9=1/99;
 -------------------
 Thiazole-Be(2+)@5H2
 -------------------
 Symbolic Z-matrix:
 Charge =  2 Multiplicity = 1
 C                     0.15476  -1.25189   0.25657 
 C                     1.49272  -1.10336   0.28913 
 H                    -0.38648  -2.16391   0.46819 
 H                     2.23747  -1.84978   0.52762 
 N                    -0.52473  -0.08001  -0.08986 
 H                    -2.41256  -0.86263  -1.62033 
 H                    -3.13127  -0.77378  -1.34307 
 H                    -2.19225   2.14329   2.02623 
 H                    -2.93601   2.2524    2.02997 
 H                    -3.30756  -0.59411   0.79863 
 H                    -2.66812  -0.54553   1.23493 
 H                    -2.81456   1.39644  -0.79263 
 H                    -2.70175   1.56081  -0.04239 
 H                    -5.30935  -0.38232  -0.40192 
 H                    -5.2407   -1.12981  -0.3545 
 H                     0.03114   1.92707  -0.59456 
 S                     1.94079   0.5078   -0.11346 
 C                     0.33402   0.92745  -0.31125 
 Be                   -2.10915   0.00599  -0.2246 
 

 GradGradGradGradGradGradGradGradGradGradGradGradGradGradGradGradGradGrad
 Berny optimization.
 Initialization pass.
                           ----------------------------
                           !    Initial Parameters    !
                           ! (Angstroms and Degrees)  !
 --------------------------                            --------------------------
 ! Name  Definition              Value          Derivative Info.                !
 --------------------------------------------------------------------------------
 ! R1    R(1,2)                  1.3466         estimate D2E/DX2                !
 ! R2    R(1,3)                  1.0814         estimate D2E/DX2                !
 ! R3    R(1,5)                  1.3982         estimate D2E/DX2                !
 ! R4    R(2,4)                  1.081          estimate D2E/DX2                !
 ! R5    R(2,17)                 1.7201         estimate D2E/DX2                !
 ! R6    R(5,18)                 1.3422         estimate D2E/DX2                !
 ! R7    R(5,19)                 1.5925         estimate D2E/DX2                !
 ! R8    R(6,7)                  0.7754         estimate D2E/DX2                !
 ! R9    R(6,19)                 1.6717         estimate D2E/DX2                !
 ! R10   R(7,14)                 2.4048         estimate D2E/DX2                !
 ! R11   R(7,15)                 2.3566         estimate D2E/DX2                !
 ! R12   R(7,19)                 1.704          estimate D2E/DX2                !
 ! R13   R(8,9)                  0.7517         estimate D2E/DX2                !
 ! R14   R(8,11)                 2.8429         estimate D2E/DX2                !
 ! R15   R(8,13)                 2.2086         estimate D2E/DX2                !
 ! R16   R(9,13)                 2.1972         estimate D2E/DX2                !
 ! R17   R(10,11)                0.7756         estimate D2E/DX2                !
 ! R18   R(10,14)                2.3438         estimate D2E/DX2                !
 ! R19   R(10,15)                2.3138         estimate D2E/DX2                !
 ! R20   R(10,19)                1.6862         estimate D2E/DX2                !
 ! R21   R(11,19)                1.6574         estimate D2E/DX2                !
 ! R22   R(12,13)                0.7763         estimate D2E/DX2                !
 ! R23   R(12,19)                1.6594         estimate D2E/DX2                !
 ! R24   R(13,19)                1.6739         estimate D2E/DX2                !
 ! R25   R(14,15)                0.7521         estimate D2E/DX2                !
 ! R26   R(16,18)                1.0822         estimate D2E/DX2                !
 ! R27   R(17,18)                1.6724         estimate D2E/DX2                !
 ! A1    A(2,1,3)              125.8433         estimate D2E/DX2                !
 ! A2    A(2,1,5)              113.3533         estimate D2E/DX2                !
 ! A3    A(3,1,5)              120.8034         estimate D2E/DX2                !
 ! A4    A(1,2,4)              127.8562         estimate D2E/DX2                !
 ! A5    A(1,2,17)             110.8845         estimate D2E/DX2                !
 ! A6    A(4,2,17)             121.2593         estimate D2E/DX2                !
 ! A7    A(1,5,18)             111.042          estimate D2E/DX2                !
 ! A8    A(1,5,19)             123.3488         estimate D2E/DX2                !
 ! A9    A(18,5,19)            125.5978         estimate D2E/DX2                !
 ! A10   A(6,7,15)             164.2158         estimate D2E/DX2                !
 ! A11   A(14,7,19)            102.2343         estimate D2E/DX2                !
 ! A12   A(15,7,19)            109.3114         estimate D2E/DX2                !
 ! A13   A(9,8,11)              88.4558         estimate D2E/DX2                !
 ! A14   A(11,8,13)             56.7195         estimate D2E/DX2                !
 ! A15   A(11,10,14)           170.607          estimate D2E/DX2                !
 ! A16   A(11,10,15)           169.6151         estimate D2E/DX2                !
 ! A17   A(14,10,19)           105.3088         estimate D2E/DX2                !
 ! A18   A(15,10,19)           111.948          estimate D2E/DX2                !
 ! A19   A(8,11,10)            110.72           estimate D2E/DX2                !
 ! A20   A(8,11,19)             82.7575         estimate D2E/DX2                !
 ! A21   A(8,13,12)            174.0211         estimate D2E/DX2                !
 ! A22   A(8,13,19)            105.3825         estimate D2E/DX2                !
 ! A23   A(9,13,12)            164.2982         estimate D2E/DX2                !
 ! A24   A(9,13,19)            115.6446         estimate D2E/DX2                !
 ! A25   A(7,14,10)             53.9984         estimate D2E/DX2                !
 ! A26   A(7,15,10)             54.987          estimate D2E/DX2                !
 ! A27   A(2,17,18)             90.7133         estimate D2E/DX2                !
 ! A28   A(5,18,16)            123.8784         estimate D2E/DX2                !
 ! A29   A(5,18,17)            114.0069         estimate D2E/DX2                !
 ! A30   A(16,18,17)           122.1147         estimate D2E/DX2                !
 ! A31   A(5,19,6)             102.8949         estimate D2E/DX2                !
 ! A32   A(5,19,7)             128.8745         estimate D2E/DX2                !
 ! A33   A(5,19,10)            129.5359         estimate D2E/DX2                !
 ! A34   A(5,19,11)            104.0685         estimate D2E/DX2                !
 ! A35   A(5,19,12)            119.8128         estimate D2E/DX2                !
 ! A36   A(5,19,13)            113.1533         estimate D2E/DX2                !
 ! A37   A(6,19,10)            101.1121         estimate D2E/DX2                !
 ! A38   A(6,19,11)            120.0747         estimate D2E/DX2                !
 ! A39   A(6,19,12)             94.1537         estimate D2E/DX2                !
 ! A40   A(6,19,13)            120.6156         estimate D2E/DX2                !
 ! A41   A(7,19,10)             78.9969         estimate D2E/DX2                !
 ! A42   A(7,19,11)            102.9111         estimate D2E/DX2                !
 ! A43   A(7,19,12)             84.4779         estimate D2E/DX2                !
 ! A44   A(7,19,13)            106.5082         estimate D2E/DX2                !
 ! A45   A(10,19,12)           101.7592         estimate D2E/DX2                !
 ! A46   A(10,19,13)            90.7394         estimate D2E/DX2                !
 ! A47   A(11,19,12)           115.9069         estimate D2E/DX2                !
 ! A48   A(11,19,13)            95.3843         estimate D2E/DX2                !
 ! A49   L(6,7,14,10,-1)       177.6873         estimate D2E/DX2                !
 ! A50   L(6,7,14,10,-2)       176.918          estimate D2E/DX2                !
 ! D1    D(3,1,2,4)             -0.1026         estimate D2E/DX2                !
 ! D2    D(3,1,2,17)           179.9488         estimate D2E/DX2                !
 ! D3    D(5,1,2,4)            179.9299         estimate D2E/DX2                !
 ! D4    D(5,1,2,17)            -0.0187         estimate D2E/DX2                !
 ! D5    D(2,1,5,18)             0.0465         estimate D2E/DX2                !
 ! D6    D(2,1,5,19)           178.8811         estimate D2E/DX2                !
 ! D7    D(3,1,5,18)          -179.9228         estimate D2E/DX2                !
 ! D8    D(3,1,5,19)            -1.0882         estimate D2E/DX2                !
 ! D9    D(1,2,17,18)           -0.01           estimate D2E/DX2                !
 ! D10   D(4,2,17,18)         -179.9626         estimate D2E/DX2                !
 ! D11   D(1,5,18,16)          179.8485         estimate D2E/DX2                !
 ! D12   D(1,5,18,17)           -0.0546         estimate D2E/DX2                !
 ! D13   D(19,5,18,16)           1.0458         estimate D2E/DX2                !
 ! D14   D(19,5,18,17)        -178.8572         estimate D2E/DX2                !
 ! D15   D(1,5,19,6)           -71.1483         estimate D2E/DX2                !
 ! D16   D(1,5,19,7)           -65.0396         estimate D2E/DX2                !
 ! D17   D(1,5,19,10)           45.2959         estimate D2E/DX2                !
 ! D18   D(1,5,19,11)           54.8217         estimate D2E/DX2                !
 ! D19   D(1,5,19,12)         -173.6707         estimate D2E/DX2                !
 ! D20   D(1,5,19,13)          157.0834         estimate D2E/DX2                !
 ! D21   D(18,5,19,6)          107.5139         estimate D2E/DX2                !
 ! D22   D(18,5,19,7)          113.6227         estimate D2E/DX2                !
 ! D23   D(18,5,19,10)        -136.0418         estimate D2E/DX2                !
 ! D24   D(18,5,19,11)        -126.516          estimate D2E/DX2                !
 ! D25   D(18,5,19,12)           4.9915         estimate D2E/DX2                !
 ! D26   D(18,5,19,13)         -24.2544         estimate D2E/DX2                !
 ! D27   D(19,7,14,10)         -30.3043         estimate D2E/DX2                !
 ! D28   D(6,7,15,10)           85.4924         estimate D2E/DX2                !
 ! D29   D(19,7,15,10)         -15.6043         estimate D2E/DX2                !
 ! D30   D(14,7,19,5)          167.8613         estimate D2E/DX2                !
 ! D31   D(14,7,19,10)          35.3124         estimate D2E/DX2                !
 ! D32   D(14,7,19,11)          47.521          estimate D2E/DX2                !
 ! D33   D(14,7,19,12)         -67.8306         estimate D2E/DX2                !
 ! D34   D(14,7,19,13)         -52.1707         estimate D2E/DX2                !
 ! D35   D(15,7,19,5)          150.4859         estimate D2E/DX2                !
 ! D36   D(15,7,19,10)          17.937          estimate D2E/DX2                !
 ! D37   D(15,7,19,11)          30.1456         estimate D2E/DX2                !
 ! D38   D(15,7,19,12)         -85.206          estimate D2E/DX2                !
 ! D39   D(15,7,19,13)         -69.5461         estimate D2E/DX2                !
 ! D40   D(9,8,11,10)           31.8453         estimate D2E/DX2                !
 ! D41   D(9,8,11,19)          106.7855         estimate D2E/DX2                !
 ! D42   D(13,8,11,10)         -46.382          estimate D2E/DX2                !
 ! D43   D(13,8,11,19)          28.5582         estimate D2E/DX2                !
 ! D44   D(11,8,13,12)        -126.8011         estimate D2E/DX2                !
 ! D45   D(11,8,13,19)         -29.1441         estimate D2E/DX2                !
 ! D46   D(14,10,11,8)         -12.5814         estimate D2E/DX2                !
 ! D47   D(15,10,11,8)        -152.484          estimate D2E/DX2                !
 ! D48   D(11,10,14,7)         118.7856         estimate D2E/DX2                !
 ! D49   D(19,10,14,7)          31.1098         estimate D2E/DX2                !
 ! D50   D(11,10,15,7)        -111.0104         estimate D2E/DX2                !
 ! D51   D(19,10,15,7)          16.0566         estimate D2E/DX2                !
 ! D52   D(14,10,19,5)        -168.8918         estimate D2E/DX2                !
 ! D53   D(14,10,19,6)         -51.6976         estimate D2E/DX2                !
 ! D54   D(14,10,19,7)         -36.9368         estimate D2E/DX2                !
 ! D55   D(14,10,19,12)         44.9801         estimate D2E/DX2                !
 ! D56   D(14,10,19,13)         69.7409         estimate D2E/DX2                !
 ! D57   D(15,10,19,5)        -150.5667         estimate D2E/DX2                !
 ! D58   D(15,10,19,6)         -33.3725         estimate D2E/DX2                !
 ! D59   D(15,10,19,7)         -18.6118         estimate D2E/DX2                !
 ! D60   D(15,10,19,12)         63.3052         estimate D2E/DX2                !
 ! D61   D(15,10,19,13)         88.066          estimate D2E/DX2                !
 ! D62   D(8,11,19,5)           83.5336         estimate D2E/DX2                !
 ! D63   D(8,11,19,6)         -162.2003         estimate D2E/DX2                !
 ! D64   D(8,11,19,7)         -140.3085         estimate D2E/DX2                !
 ! D65   D(8,11,19,12)         -50.2174         estimate D2E/DX2                !
 ! D66   D(8,11,19,13)         -31.9827         estimate D2E/DX2                !
 ! D67   D(8,13,19,5)          -63.2643         estimate D2E/DX2                !
 ! D68   D(8,13,19,6)          174.3859         estimate D2E/DX2                !
 ! D69   D(8,13,19,7)          149.7346         estimate D2E/DX2                !
 ! D70   D(8,13,19,10)          70.9945         estimate D2E/DX2                !
 ! D71   D(8,13,19,11)          44.5452         estimate D2E/DX2                !
 ! D72   D(9,13,19,5)          -81.1941         estimate D2E/DX2                !
 ! D73   D(9,13,19,6)          156.4561         estimate D2E/DX2                !
 ! D74   D(9,13,19,7)          131.8049         estimate D2E/DX2                !
 ! D75   D(9,13,19,10)          53.0647         estimate D2E/DX2                !
 ! D76   D(9,13,19,11)          26.6154         estimate D2E/DX2                !
 ! D77   D(2,17,18,5)            0.0378         estimate D2E/DX2                !
 ! D78   D(2,17,18,16)        -179.8671         estimate D2E/DX2                !
 --------------------------------------------------------------------------------
 Trust Radius=3.00D-01 FncErr=1.00D-07 GrdErr=1.00D-06
 Number of steps in this run= 114 maximum allowed number of steps= 114.
 GradGradGradGradGradGradGradGradGradGradGradGradGradGradGradGradGradGrad

                          Input orientation:                          
 ---------------------------------------------------------------------
 Center     Atomic      Atomic             Coordinates (Angstroms)
 Number     Number       Type             X           Y           Z
 ---------------------------------------------------------------------
      1          6           0        0.154759   -1.251894    0.256565
      2          6           0        1.492723   -1.103362    0.289133
      3          1           0       -0.386477   -2.163909    0.468192
      4          1           0        2.237471   -1.849781    0.527620
      5          7           0       -0.524727   -0.080008   -0.089863
      6          1           0       -2.412564   -0.862625   -1.620325
      7          1           0       -3.131270   -0.773777   -1.343066
      8          1           0       -2.192250    2.143285    2.026228
      9          1           0       -2.936012    2.252397    2.029974
     10          1           0       -3.307562   -0.594108    0.798625
     11          1           0       -2.668124   -0.545530    1.234927
     12          1           0       -2.814564    1.396438   -0.792625
     13          1           0       -2.701747    1.560806   -0.042385
     14          1           0       -5.309349   -0.382320   -0.401920
     15          1           0       -5.240702   -1.129805   -0.354497
     16          1           0        0.031137    1.927066   -0.594556
     17         16           0        1.940794    0.507798   -0.113464
     18          6           0        0.334018    0.927454   -0.311252
     19          4           0       -2.109151    0.005991   -0.224601
 ---------------------------------------------------------------------
                    Distance matrix (angstroms):
                    1          2          3          4          5
     1  C    0.000000
     2  C    1.346577   0.000000
     3  H    1.081431   2.165229   0.000000
     4  H    2.183719   1.081049   2.643352   0.000000
     5  N    1.398224   2.293686   2.161754   3.338131   0.000000
     6  H    3.203965   4.353763   3.187518   5.216414   2.553181
     7  H    3.685838   4.914673   3.570296   5.786245   2.974206
     8  H    4.490813   5.209342   4.923435   6.149214   3.493065
     9  H    4.997790   5.822829   5.333203   6.771252   3.968390
    10  H    3.565695   4.854035   3.332596   5.691885   2.966122
    11  H    3.069985   4.303295   2.900508   5.125058   2.562407
    12  H    4.114771   5.096265   4.490138   6.148499   2.813738
    13  H    4.019985   4.980088   4.415276   6.029335   2.726525
    14  H    5.571915   6.875001   5.307148   7.744158   4.804308
    15  H    5.431326   6.764168   5.030874   7.564362   4.838649
    16  H    3.293247   3.478597   4.247342   4.515724   2.142906
    17  S    2.534435   1.720084   3.590617   2.461135   2.534732
    18  C    2.259227   2.413975   3.268512   3.469852   1.342176
    19  Be   2.634214   3.803693   2.855877   4.785692   1.592467
                    6          7          8          9         10
     6  H    0.000000
     7  H    0.775438   0.000000
     8  H    4.730897   4.554465   0.000000
     9  H    4.827219   4.535775   0.751732   0.000000
    10  H    2.593153   2.156432   3.200664   3.123597   0.000000
    11  H    2.884151   2.629192   2.842946   2.921003   0.775629
    12  H    2.439274   2.261221   2.981776   2.952030   2.595650
    13  H    2.906293   2.706758   2.208626   2.197237   2.391226
    14  H    3.179083   2.404792   4.689444   4.299834   2.343782
    15  H    3.109995   2.356635   5.066955   4.736728   2.313805
    16  H    3.847889   4.225593   3.443648   3.974666   4.409556
    17  S    4.806289   5.374029   4.933067   5.605461   5.439793
    18  C    3.530123   3.995879   3.650217   4.234372   4.099766
    19  Be   1.671705   1.704033   3.105022   3.288335   1.686209
                   11         12         13         14         15
    11  H    0.000000
    12  H    2.811343   0.000000
    13  H    2.463597   0.776276   0.000000
    14  H    3.111587   3.088783   3.271787   0.000000
    15  H    3.079903   3.529873   3.712559   0.752127   0.000000
    16  H    4.092279   2.901519   2.812062   5.821612   6.098719
    17  S    4.916277   4.885117   4.760994   7.310273   7.369785
    18  C    3.684183   3.219508   3.112763   5.794076   5.942364
    19  Be   1.657362   1.659398   1.673865   3.228544   3.333694
                   16         17         18         19
    16  H    0.000000
    17  S    2.427460   0.000000
    18  C    1.082230   1.672412   0.000000
    19  Be   2.899695   4.082428   2.612600   0.000000
 Stoichiometry    C3H13BeNS(2+)
 Framework group  C1[X(C3H13BeNS)]
 Deg. of freedom    51
 Full point group                 C1      NOp   1
 Largest Abelian subgroup         C1      NOp   1
 Largest concise Abelian subgroup C1      NOp   1
                         Standard orientation:                         
 ---------------------------------------------------------------------
 Center     Atomic      Atomic             Coordinates (Angstroms)
 Number     Number       Type             X           Y           Z
 ---------------------------------------------------------------------
      1          6           0        0.154759   -1.251894    0.256565
      2          6           0        1.492723   -1.103362    0.289133
      3          1           0       -0.386477   -2.163909    0.468192
      4          1           0        2.237471   -1.849781    0.527620
      5          7           0       -0.524727   -0.080008   -0.089863
      6          1           0       -2.412564   -0.862625   -1.620325
      7          1           0       -3.131270   -0.773777   -1.343066
      8          1           0       -2.192250    2.143285    2.026228
      9          1           0       -2.936012    2.252397    2.029974
     10          1           0       -3.307562   -0.594108    0.798625
     11          1           0       -2.668124   -0.545530    1.234927
     12          1           0       -2.814564    1.396438   -0.792625
     13          1           0       -2.701747    1.560806   -0.042385
     14          1           0       -5.309349   -0.382319   -0.401920
     15          1           0       -5.240702   -1.129804   -0.354497
     16          1           0        0.031137    1.927066   -0.594556
     17         16           0        1.940794    0.507798   -0.113464
     18          6           0        0.334018    0.927454   -0.311252
     19          4           0       -2.109151    0.005991   -0.224601
 ---------------------------------------------------------------------
 Rotational constants (GHZ):      4.9566249      1.5350016      1.2913091
 Standard basis: 6-311+G(d,p) (5D, 7F)
 There are   218 symmetry adapted basis functions of A   symmetry.
 Integral buffers will be    262144 words long.
 Raffenetti 2 integral format.
 Two-electron integral symmetry is turned on.
   218 basis functions,   334 primitive gaussians,   224 cartesian basis functions
    28 alpha electrons       28 beta electrons
       nuclear repulsion energy       311.8107380877 Hartrees.
 NAtoms=   19 NActive=   19 NUniq=   19 SFac= 7.50D-01 NAtFMM=   80 NAOKFM=F Big=F
 Nuclear repulsion after empirical dispersion term =      311.8009675322 Hartrees.
 One-electron integrals computed using PRISM.
 NBasis=   218 RedAO= T  NBF=   218
 NBsUse=   218 1.00D-06 NBFU=   218
 Harris functional with IExCor= 4639 diagonalized for initial guess.
 ExpMin= 2.07D-02 ExpMax= 9.34D+04 ExpMxC= 3.17D+03 IAcc=3 IRadAn=         0 AccDes= 0.00D+00
 HarFok:  IExCor= 4639 AccDes= 0.00D+00 IRadAn=         0 IDoV= 1
 ScaDFX=  1.000000  1.000000  1.000000  1.000000
 FoFCou: FMM=F IPFlag=           0 FMFlag=      100000 FMFlg1=           0
         NFxFlg=           0 DoJE=T BraDBF=F KetDBF=T FulRan=T
         Omega=  0.000000  0.000000  1.000000  0.000000  0.000000 ICntrl=     500 IOpCl=  0
         NMat0=    1 NMatS0=    1 NMatT0=    0 NMatD0=    1 NMtDS0=    0 NMtDT0=    0
         I1Cent=           4 NGrid=           0.
 Petite list used in FoFCou.
 Initial guess orbital symmetries:
       Occupied  (A) (A) (A) (A) (A) (A) (A) (A) (A) (A) (A) (A)
                 (A) (A) (A) (A) (A) (A) (A) (A) (A) (A) (A) (A)
                 (A) (A) (A) (A)
       Virtual   (A) (A) (A) (A) (A) (A) (A) (A) (A) (A) (A) (A)
                 (A) (A) (A) (A) (A) (A) (A) (A) (A) (A) (A) (A)
                 (A) (A) (A) (A) (A) (A) (A) (A) (A) (A) (A) (A)
                 (A) (A) (A) (A) (A) (A) (A) (A) (A) (A) (A) (A)
                 (A) (A) (A) (A) (A) (A) (A) (A) (A) (A) (A) (A)
                 (A) (A) (A) (A) (A) (A) (A) (A) (A) (A) (A) (A)
                 (A) (A) (A) (A) (A) (A) (A) (A) (A) (A) (A) (A)
                 (A) (A) (A) (A) (A) (A) (A) (A) (A) (A) (A) (A)
                 (A) (A) (A) (A) (A) (A) (A) (A) (A) (A) (A) (A)
                 (A) (A) (A) (A) (A) (A) (A) (A) (A) (A) (A) (A)
                 (A) (A) (A) (A) (A) (A) (A) (A) (A) (A) (A) (A)
                 (A) (A) (A) (A) (A) (A) (A) (A) (A) (A) (A) (A)
                 (A) (A) (A) (A) (A) (A) (A) (A) (A) (A) (A) (A)
                 (A) (A) (A) (A) (A) (A) (A) (A) (A) (A) (A) (A)
                 (A) (A) (A) (A) (A) (A) (A) (A) (A) (A) (A) (A)
                 (A) (A) (A) (A) (A) (A) (A) (A) (A) (A)
 The electronic state of the initial guess is 1-A.
 Requested convergence on RMS density matrix=1.00D-08 within 128 cycles.
 Requested convergence on MAX density matrix=1.00D-06.
 Requested convergence on             energy=1.00D-06.
 No special actions if energy rises.
 FoFJK:  IHMeth= 1 ICntrl=     0 DoSepK=T KAlg= 1 I1Cent= 0 FoldK=F
 FoFJK:  IHMeth= 1 ICntrl=     0 DoSepK=T KAlg= 1 I1Cent= 0 FoldK=F
 FoFJK:  IHMeth= 1 ICntrl=     0 DoSepK=T KAlg= 1 I1Cent= 0 FoldK=F
 FoFJK:  IHMeth= 1 ICntrl=     0 DoSepK=T KAlg= 1 I1Cent= 0 FoldK=F
 FoFJK:  IHMeth= 1 ICntrl=     0 DoSepK=T KAlg= 1 I1Cent= 0 FoldK=F
 FoFJK:  IHMeth= 1 ICntrl=     0 DoSepK=T KAlg= 1 I1Cent= 0 FoldK=F
 FoFJK:  IHMeth= 1 ICntrl=     0 DoSepK=T KAlg= 1 I1Cent= 0 FoldK=F
 FoFJK:  IHMeth= 1 ICntrl=     0 DoSepK=T KAlg= 1 I1Cent= 0 FoldK=F
 FoFJK:  IHMeth= 1 ICntrl=     0 DoSepK=T KAlg= 1 I1Cent= 0 FoldK=F
 FoFJK:  IHMeth= 1 ICntrl=     0 DoSepK=T KAlg= 1 I1Cent= 0 FoldK=F
 FoFJK:  IHMeth= 1 ICntrl=     0 DoSepK=T KAlg= 1 I1Cent= 0 FoldK=F
 FoFJK:  IHMeth= 1 ICntrl=     0 DoSepK=T KAlg= 1 I1Cent= 0 FoldK=F
 FoFJK:  IHMeth= 1 ICntrl=     0 DoSepK=T KAlg= 1 I1Cent= 0 FoldK=F
 FoFJK:  IHMeth= 1 ICntrl=     0 DoSepK=T KAlg= 1 I1Cent= 0 FoldK=F
 SCF Done:  E(RwB97XD) =  -589.038455840     A.U. after   14 cycles
             Convg  =    0.3195D-08             -V/T =  2.0024

 **********************************************************************

            Population analysis using the SCF density.

 **********************************************************************

 Orbital symmetries:
       Occupied  (A) (A) (A) (A) (A) (A) (A) (A) (A) (A) (A) (A)
                 (A) (A) (A) (A) (A) (A) (A) (A) (A) (A) (A) (A)
                 (A) (A) (A) (A)
       Virtual   (A) (A) (A) (A) (A) (A) (A) (A) (A) (A) (A) (A)
                 (A) (A) (A) (A) (A) (A) (A) (A) (A) (A) (A) (A)
                 (A) (A) (A) (A) (A) (A) (A) (A) (A) (A) (A) (A)
                 (A) (A) (A) (A) (A) (A) (A) (A) (A) (A) (A) (A)
                 (A) (A) (A) (A) (A) (A) (A) (A) (A) (A) (A) (A)
                 (A) (A) (A) (A) (A) (A) (A) (A) (A) (A) (A) (A)
                 (A) (A) (A) (A) (A) (A) (A) (A) (A) (A) (A) (A)
                 (A) (A) (A) (A) (A) (A) (A) (A) (A) (A) (A) (A)
                 (A) (A) (A) (A) (A) (A) (A) (A) (A) (A) (A) (A)
                 (A) (A) (A) (A) (A) (A) (A) (A) (A) (A) (A) (A)
                 (A) (A) (A) (A) (A) (A) (A) (A) (A) (A) (A) (A)
                 (A) (A) (A) (A) (A) (A) (A) (A) (A) (A) (A) (A)
                 (A) (A) (A) (A) (A) (A) (A) (A) (A) (A) (A) (A)
                 (A) (A) (A) (A) (A) (A) (A) (A) (A) (A) (A) (A)
                 (A) (A) (A) (A) (A) (A) (A) (A) (A) (A) (A) (A)
                 (A) (A) (A) (A) (A) (A) (A) (A) (A) (A)
 The electronic state is 1-A.
 Alpha  occ. eigenvalues --  -89.39713 -14.83852 -10.70976 -10.66211 -10.64346
 Alpha  occ. eigenvalues --   -8.43661  -6.38441  -6.38010  -6.37892  -4.59514
 Alpha  occ. eigenvalues --   -1.44061  -1.25717  -1.19755  -1.05846  -1.04020
 Alpha  occ. eigenvalues --   -1.01183  -0.97581  -0.97499  -0.97432  -0.86784
 Alpha  occ. eigenvalues --   -0.86422  -0.84016  -0.82045  -0.80570  -0.80404
 Alpha  occ. eigenvalues --   -0.77102  -0.71506  -0.67005
 Alpha virt. eigenvalues --   -0.32283  -0.30130  -0.28574  -0.25877  -0.23610
 Alpha virt. eigenvalues --   -0.23221  -0.21890  -0.21339  -0.19655  -0.18851
 Alpha virt. eigenvalues --   -0.17989  -0.16829  -0.15503  -0.14279  -0.13750
 Alpha virt. eigenvalues --   -0.12839  -0.12394  -0.10702  -0.10607  -0.09687
 Alpha virt. eigenvalues --   -0.08858  -0.08669  -0.07645  -0.06910  -0.06609
 Alpha virt. eigenvalues --   -0.06222  -0.05497  -0.04861  -0.04207  -0.03050
 Alpha virt. eigenvalues --   -0.02552  -0.02153  -0.00918  -0.00200   0.00582
 Alpha virt. eigenvalues --    0.02049   0.02710   0.02859   0.03267   0.03814
 Alpha virt. eigenvalues --    0.05837   0.06888   0.07347   0.08051   0.09943
 Alpha virt. eigenvalues --    0.11254   0.13188   0.13317   0.13978   0.14449
 Alpha virt. eigenvalues --    0.15392   0.15758   0.19131   0.20000   0.20357
 Alpha virt. eigenvalues --    0.20893   0.24429   0.27416   0.28006   0.30232
 Alpha virt. eigenvalues --    0.30498   0.32298   0.33086   0.33482   0.35247
 Alpha virt. eigenvalues --    0.36587   0.39071   0.39629   0.40969   0.41449
 Alpha virt. eigenvalues --    0.45320   0.47011   0.48456   0.49692   0.51155
 Alpha virt. eigenvalues --    0.52161   0.54001   0.56350   0.59212   0.61638
 Alpha virt. eigenvalues --    0.61803   0.63590   0.67458   0.70592   0.72369
 Alpha virt. eigenvalues --    0.73300   0.76054   0.77646   0.80195   0.82806
 Alpha virt. eigenvalues --    0.83313   0.85948   0.88702   0.92923   0.95402
 Alpha virt. eigenvalues --    0.97928   0.99759   1.00196   1.03855   1.05504
 Alpha virt. eigenvalues --    1.06531   1.10763   1.12345   1.16718   1.22550
 Alpha virt. eigenvalues --    1.27168   1.28355   1.30257   1.32861   1.34359
 Alpha virt. eigenvalues --    1.34914   1.36531   1.38602   1.39922   1.41713
 Alpha virt. eigenvalues --    1.43629   1.45026   1.46071   1.47185   1.48225
 Alpha virt. eigenvalues --    1.51669   1.52409   1.54928   1.59570   1.60017
 Alpha virt. eigenvalues --    1.61928   1.62596   1.63842   1.64824   1.65907
 Alpha virt. eigenvalues --    1.67833   1.68996   1.70836   1.72955   1.74982
 Alpha virt. eigenvalues --    1.75603   1.80619   1.81899   1.83433   1.84684
 Alpha virt. eigenvalues --    1.85086   1.90672   1.95455   1.96805   2.00027
 Alpha virt. eigenvalues --    2.10893   2.14218   2.16332   2.23797   2.25317
 Alpha virt. eigenvalues --    2.28951   2.29661   2.30340   2.36921   2.44153
 Alpha virt. eigenvalues --    2.48005   2.52486   2.53361   2.53652   2.55455
 Alpha virt. eigenvalues --    2.58561   2.58914   2.61350   2.65607   2.71449
 Alpha virt. eigenvalues --    2.82407   2.84550   2.87664   2.91212   3.00016
 Alpha virt. eigenvalues --    3.08621   3.08981   3.15974   3.30826   3.35150
 Alpha virt. eigenvalues --    3.56700   3.64010   3.83999   4.18440   4.68996
 Alpha virt. eigenvalues --    7.74749   8.03511  17.07251  17.22497  17.28645
 Alpha virt. eigenvalues --   23.49542  23.59502  23.98754  35.31006 188.99587
          Condensed to atoms (all electrons):
              1          2          3          4          5          6
     1  C    5.467702   0.216656   0.410755  -0.021854   0.164866   0.010582
     2  C    0.216656   5.577786  -0.006487   0.378779  -0.037562  -0.012511
     3  H    0.410755  -0.006487   0.403359  -0.002080  -0.061876   0.000170
     4  H   -0.021854   0.378779  -0.002080   0.339047   0.011832  -0.000005
     5  N    0.164866  -0.037562  -0.061876   0.011832   6.944646  -0.052620
     6  H    0.010582  -0.012511   0.000170  -0.000005  -0.052620   0.433101
     7  H   -0.003403   0.006006  -0.000638   0.000003  -0.001198   0.265196
     8  H    0.007024  -0.004668  -0.000013   0.000000  -0.068998  -0.000002
     9  H    0.003339  -0.001572  -0.000004   0.000000  -0.035860  -0.000004
    10  H   -0.005231   0.009053  -0.000804   0.000004   0.029520  -0.009511
    11  H    0.013573  -0.013265   0.000949  -0.000007  -0.034645   0.002653
    12  H   -0.006389   0.002050   0.000070   0.000000   0.087309  -0.001108
    13  H    0.002283  -0.003307   0.000046   0.000000  -0.012155  -0.001236
    14  H    0.001303   0.001054  -0.000027   0.000000   0.009736  -0.006436
    15  H    0.001646   0.001147  -0.000048   0.000000   0.007931  -0.006483
    16  H    0.010031  -0.004051   0.000073  -0.000002  -0.021339  -0.000182
    17  S    0.309599   0.019425  -0.007716   0.004705  -0.094974   0.003145
    18  C   -0.353839   0.257884   0.019538  -0.006696   0.322876  -0.007694
    19  Be   0.109240  -0.247254   0.009069  -0.000060  -0.716903   0.174235
              7          8          9         10         11         12
     1  C   -0.003403   0.007024   0.003339  -0.005231   0.013573  -0.006389
     2  C    0.006006  -0.004668  -0.001572   0.009053  -0.013265   0.002050
     3  H   -0.000638  -0.000013  -0.000004  -0.000804   0.000949   0.000070
     4  H    0.000003   0.000000   0.000000   0.000004  -0.000007   0.000000
     5  N   -0.001198  -0.068998  -0.035860   0.029520  -0.034645   0.087309
     6  H    0.265196  -0.000002  -0.000004  -0.009511   0.002653  -0.001108
     7  H    0.487354   0.000072   0.000015   0.003258  -0.010536  -0.007768
     8  H    0.000072   0.585818   0.375401  -0.002613  -0.004041  -0.013231
     9  H    0.000015   0.375401   0.506345  -0.001965  -0.002649  -0.010923
    10  H    0.003258  -0.002613  -0.001965   0.485071   0.258123  -0.002142
    11  H   -0.010536  -0.004041  -0.002649   0.258123   0.442766   0.001906
    12  H   -0.007768  -0.013231  -0.010923  -0.002142   0.001906   0.479740
    13  H   -0.004500   0.012670   0.010773  -0.008061  -0.002156   0.272274
    14  H    0.020634  -0.000042  -0.000066   0.024559  -0.008187  -0.001130
    15  H    0.021186   0.000028   0.000037   0.024036  -0.008028  -0.001082
    16  H    0.000117  -0.000865  -0.000275   0.000111  -0.000079   0.001596
    17  S   -0.002275  -0.001477  -0.000682  -0.002145   0.004055   0.003272
    18  C    0.002165  -0.026797  -0.014821   0.006149  -0.007108   0.028101
    19  Be   0.108638   0.137923   0.083771   0.073046   0.148590  -0.028239
             13         14         15         16         17         18
     1  C    0.002283   0.001303   0.001646   0.010031   0.309599  -0.353839
     2  C   -0.003307   0.001054   0.001147  -0.004051   0.019425   0.257884
     3  H    0.000046  -0.000027  -0.000048   0.000073  -0.007716   0.019538
     4  H    0.000000   0.000000   0.000000  -0.000002   0.004705  -0.006696
     5  N   -0.012155   0.009736   0.007931  -0.021339  -0.094974   0.322876
     6  H   -0.001236  -0.006436  -0.006483  -0.000182   0.003145  -0.007694
     7  H   -0.004500   0.020634   0.021186   0.000117  -0.002275   0.002165
     8  H    0.012670  -0.000042   0.000028  -0.000865  -0.001477  -0.026797
     9  H    0.010773  -0.000066   0.000037  -0.000275  -0.000682  -0.014821
    10  H   -0.008061   0.024559   0.024036   0.000111  -0.002145   0.006149
    11  H   -0.002156  -0.008187  -0.008028  -0.000079   0.004055  -0.007108
    12  H    0.272274  -0.001130  -0.001082   0.001596   0.003272   0.028101
    13  H    0.452722  -0.000973  -0.000414   0.000311   0.002978  -0.003770
    14  H   -0.000973   0.573538   0.385881   0.000007  -0.000304   0.000783
    15  H   -0.000414   0.385881   0.538519   0.000002  -0.000275   0.000484
    16  H    0.000311   0.000007   0.000002   0.368644   0.006175   0.372315
    17  S    0.002978  -0.000304  -0.000275   0.006175  15.368808  -0.015827
    18  C   -0.003770   0.000783   0.000484   0.372315  -0.015827   6.027565
    19  Be   0.136656  -0.018409  -0.018518  -0.005311   0.012891  -0.415417
             19
     1  C    0.109240
     2  C   -0.247254
     3  H    0.009069
     4  H   -0.000060
     5  N   -0.716903
     6  H    0.174235
     7  H    0.108638
     8  H    0.137923
     9  H    0.083771
    10  H    0.073046
    11  H    0.148590
    12  H   -0.028239
    13  H    0.136656
    14  H   -0.018409
    15  H   -0.018518
    16  H   -0.005311
    17  S    0.012891
    18  C   -0.415417
    19  Be   4.716432
 Mulliken atomic charges:
              1
     1  C   -0.337883
     2  C   -0.139163
     3  H    0.235665
     4  H    0.296334
     5  N    0.559415
     6  H    0.208710
     7  H    0.115676
     8  H    0.003812
     9  H    0.089140
    10  H    0.119544
    11  H    0.218087
    12  H    0.195695
    13  H    0.145860
    14  H    0.018080
    15  H    0.053951
    16  H    0.272722
    17  S    0.390625
    18  C   -0.185891
    19  Be  -0.260379
 Sum of Mulliken atomic charges =   2.00000
 Mulliken charges with hydrogens summed into heavy atoms:
              1
     1  C   -0.102218
     2  C    0.157172
     5  N    0.559415
    17  S    0.390625
    18  C    0.086830
    19  Be   0.908176
 Sum of Mulliken charges with hydrogens summed into heavy atoms =   2.00000
 Electronic spatial extent (au):  <R**2>=           1074.5386
 Charge=              2.0000 electrons
 Dipole moment (field-independent basis, Debye):
    X=            -12.2858    Y=             -0.0227    Z=             -1.1739  Tot=             12.3418
 Quadrupole moment (field-independent basis, Debye-Ang):
   XX=             19.1268   YY=            -27.3654   ZZ=            -38.5105
   XY=             -2.0163   XZ=              3.9752   YZ=             -1.7608
 Traceless Quadrupole moment (field-independent basis, Debye-Ang):
   XX=             34.7099   YY=            -11.7824   ZZ=            -22.9275
   XY=             -2.0163   XZ=              3.9752   YZ=             -1.7608
 Octapole moment (field-independent basis, Debye-Ang**2):
  XXX=           -133.1360  YYY=              1.7201  ZZZ=             -3.5310  XYY=            -11.1099
  XXY=             -8.3649  XXZ=             -6.9464  XZZ=            -16.7154  YZZ=              1.2876
  YYZ=              1.8962  XYZ=             -6.9249
 Hexadecapole moment (field-independent basis, Debye-Ang**3):
 XXXX=           -380.6849 YYYY=           -232.2188 ZZZZ=           -117.4972 XXXY=             10.9245
 XXXZ=             36.1898 YYYX=            -20.1277 YYYZ=            -11.8010 ZZZX=              3.8457
 ZZZY=              6.4994 XXYY=           -132.8830 XXZZ=           -145.2046 YYZZ=            -57.3864
 XXYZ=              6.6673 YYXZ=              0.8723 ZZXY=             -0.9440
 N-N= 3.118009675322D+02 E-N=-1.991597108879D+03  KE= 5.876562381339D+02
 Calling FoFJK, ICntrl=      2127 FMM=F ISym2X=0 I1Cent= 0 IOpClX= 0 NMat=1 NMatS=1 NMatT=0.
 FoFJK:  IHMeth= 1 ICntrl=  2127 DoSepK=T KAlg= 1 I1Cent= 0 FoldK=F
 ***** Axes restored to original set *****
 -------------------------------------------------------------------
 Center     Atomic                   Forces (Hartrees/Bohr)
 Number     Number              X              Y              Z
 -------------------------------------------------------------------
      1        6          -0.002814450    0.000427766   -0.000283913
      2        6           0.002515638    0.000350031    0.000002815
      3        1          -0.000292796   -0.000325978    0.000047675
      4        1           0.000134435   -0.000145815    0.000067945
      5        7           0.001956279   -0.001204696    0.000581075
      6        1          -0.001595165   -0.000545643   -0.000602745
      7        1           0.000659186   -0.000641690   -0.001262876
      8        1          -0.000996925   -0.000167911   -0.000302660
      9        1           0.001229360   -0.000405181   -0.000156612
     10        1           0.000304312   -0.000274013    0.001531243
     11        1          -0.001675988   -0.000442247    0.000507424
     12        1          -0.000487705    0.001538113    0.000946719
     13        1          -0.000725281    0.000843579   -0.001439744
     14        1           0.000420079   -0.001133753   -0.000041109
     15        1           0.000222758    0.001319103    0.000058022
     16        1          -0.000332358    0.000430364   -0.000074054
     17       16           0.000720339   -0.000226722    0.000177377
     18        6          -0.000234372    0.000736219   -0.000181699
     19        4           0.000992652   -0.000131526    0.000425115
 -------------------------------------------------------------------
 Cartesian Forces:  Max     0.002814450 RMS     0.000912947

 GradGradGradGradGradGradGradGradGradGradGradGradGradGradGradGradGradGrad
 Berny optimization.
 Internal  Forces:  Max     0.002563733 RMS     0.000416654
 Search for a local minimum.
 Step number   1 out of a maximum of  114
 All quantities printed in internal units (Hartrees-Bohrs-Radians)
 Mixed Optimization -- En-DIIS/RFO-DIIS
 Second derivative matrix not updated -- first step.
     Eigenvalues ---    0.00318   0.00387   0.00536   0.00700   0.00832
     Eigenvalues ---    0.00885   0.01396   0.01949   0.01968   0.01969
     Eigenvalues ---    0.02107   0.02265   0.02333   0.02336   0.02449
     Eigenvalues ---    0.02603   0.02643   0.02851   0.03005   0.04768
     Eigenvalues ---    0.05429   0.06621   0.07248   0.07729   0.07927
     Eigenvalues ---    0.08281   0.08986   0.09996   0.11241   0.12469
     Eigenvalues ---    0.13353   0.16000   0.16000   0.16000   0.22474
     Eigenvalues ---    0.23497   0.24334   0.24992   0.25466   0.26494
     Eigenvalues ---    0.27362   0.28689   0.32069   0.32674   0.35726
     Eigenvalues ---    0.35822   0.35868   0.37746   0.44531   0.51723
     Eigenvalues ---    0.557561000.000001000.000001000.000001000.00000
     Eigenvalues --- 1000.000001000.000001000.000001000.000001000.00000
     Eigenvalues --- 1000.000001000.000001000.000001000.000001000.00000
     Eigenvalues --- 1000.000001000.000001000.000001000.000001000.00000
     Eigenvalues --- 1000.000001000.000001000.000001000.000001000.00000
     Eigenvalues --- 1000.000001000.000001000.000001000.000001000.00000
     Eigenvalues --- 1000.000001000.000001000.000001000.000001000.00000
     Eigenvalues --- 1000.000001000.000001000.000001000.000001000.00000
     Eigenvalues --- 1000.000001000.000001000.000001000.000001000.00000
     Eigenvalues --- 1000.000001000.000001000.000001000.000001000.00000
     Eigenvalues --- 1000.000001000.000001000.000001000.000001000.00000
     Eigenvalues --- 1000.000001000.000001000.000001000.000001000.00000
     Eigenvalues --- 1000.000001000.000001000.000001000.000001000.00000
     Eigenvalues --- 1000.000001000.000001000.000001000.000001000.00000
     Eigenvalues --- 1000.000001000.000001000.000001000.000001000.00000
     Eigenvalues --- 1000.000001000.000001000.000001000.000001000.00000
     Eigenvalues --- 1000.000001000.000001000.000001000.000001000.00000
     Eigenvalues --- 1000.000001000.000001000.000001000.000001000.00000
     Eigenvalues --- 1000.000001000.000001000.000001000.000001000.00000
     Eigenvalues --- 1000.000001000.000001000.000001000.000001000.00000
     Eigenvalues --- 1000.000001000.000001000.000001000.000001000.00000
 RFO step:  Lambda=-1.65158055D-04 EMin= 3.17756556D-03
 Linear search not attempted -- first point.
 Iteration  1 RMS(Cart)=  0.00446329 RMS(Int)=  0.00001735
 Iteration  2 RMS(Cart)=  0.00001181 RMS(Int)=  0.00000520
 Iteration  3 RMS(Cart)=  0.00000000 RMS(Int)=  0.00000520
 Variable       Old X    -DE/DX   Delta X   Delta X   Delta X     New X
                                 (Linear)    (Quad)   (Total)
    R1        2.54466   0.00256   0.00000   0.00471   0.00471   2.54937
    R2        2.04361   0.00043   0.00000   0.00120   0.00120   2.04481
    R3        2.64226  -0.00069   0.00000  -0.00148  -0.00148   2.64078
    R4        2.04289   0.00021   0.00000   0.00058   0.00058   2.04347
    R5        3.25049   0.00011   0.00000   0.00042   0.00042   3.25090
    R6        2.53634   0.00078   0.00000   0.00127   0.00128   2.53762
    R7        3.00933   0.00167   0.00000   0.00684   0.00684   3.01617
    R8        1.46537  -0.00091   0.00000  -0.00328  -0.00328   1.46209
    R9        3.15907   0.00116   0.00000   0.01582   0.01582   3.17488
   R10        4.54440  -0.00013   0.00000  -0.00530  -0.00531   4.53909
   R11        4.45339  -0.00001   0.00000  -0.00127  -0.00125   4.45214
   R12        3.22016   0.00074   0.00000   0.00818   0.00819   3.22835
   R13        1.42057  -0.00095   0.00000  -0.00307  -0.00308   1.41749
   R14        5.37239  -0.00020   0.00000  -0.00500  -0.00500   5.36739
   R15        4.17370  -0.00003   0.00000  -0.00621  -0.00620   4.16750
   R16        4.15218  -0.00036   0.00000  -0.01067  -0.01067   4.14151
   R17        1.46573  -0.00092   0.00000  -0.00302  -0.00303   1.46270
   R18        4.42911  -0.00004   0.00000  -0.00010  -0.00009   4.42901
   R19        4.37246  -0.00028   0.00000  -0.00734  -0.00735   4.36511
   R20        3.18647   0.00073   0.00000   0.00893   0.00893   3.19540
   R21        3.13196   0.00100   0.00000   0.01267   0.01266   3.14462
   R22        1.46695  -0.00089   0.00000  -0.00333  -0.00333   1.46362
   R23        3.13581   0.00121   0.00000   0.01607   0.01606   3.15187
   R24        3.16315   0.00078   0.00000   0.00862   0.00861   3.17176
   R25        1.42131  -0.00086   0.00000  -0.00312  -0.00311   1.41820
   R26        2.04512   0.00051   0.00000   0.00143   0.00143   2.04654
   R27        3.16040   0.00091   0.00000   0.00217   0.00217   3.16257
    A1        2.19638   0.00021   0.00000   0.00092   0.00092   2.19730
    A2        1.97839  -0.00023   0.00000  -0.00067  -0.00067   1.97772
    A3        2.10842   0.00002   0.00000  -0.00025  -0.00025   2.10817
    A4        2.23151   0.00009   0.00000   0.00014   0.00014   2.23165
    A5        1.93530  -0.00020   0.00000  -0.00043  -0.00044   1.93486
    A6        2.11637   0.00011   0.00000   0.00029   0.00029   2.11667
    A7        1.93805   0.00041   0.00000   0.00154   0.00154   1.93959
    A8        2.15284  -0.00005   0.00000  -0.00012  -0.00012   2.15272
    A9        2.19210  -0.00036   0.00000  -0.00140  -0.00140   2.19070
   A10        2.86611   0.00009   0.00000   0.00029   0.00029   2.86640
   A11        1.78432  -0.00033   0.00000  -0.00174  -0.00174   1.78258
   A12        1.90784  -0.00047   0.00000  -0.00416  -0.00416   1.90368
   A13        1.54385  -0.00006   0.00000  -0.00020  -0.00019   1.54365
   A14        0.98994   0.00045   0.00000   0.00508   0.00508   0.99502
   A15        2.97765   0.00013   0.00000   0.00064   0.00063   2.97828
   A16        2.96034   0.00007   0.00000  -0.00043  -0.00042   2.95992
   A17        1.83799  -0.00039   0.00000  -0.00417  -0.00416   1.83382
   A18        1.95386  -0.00038   0.00000  -0.00210  -0.00210   1.95176
   A19        1.93243   0.00000   0.00000   0.00179   0.00178   1.93421
   A20        1.44439  -0.00029   0.00000  -0.00454  -0.00454   1.43985
   A21        3.03724   0.00014   0.00000  -0.00093  -0.00092   3.03632
   A22        1.83927  -0.00052   0.00000  -0.00591  -0.00592   1.83335
   A23        2.86755   0.00014   0.00000  -0.00006  -0.00007   2.86747
   A24        2.01838  -0.00060   0.00000  -0.00441  -0.00442   2.01396
   A25        0.94245   0.00043   0.00000   0.00409   0.00409   0.94654
   A26        0.95970   0.00045   0.00000   0.00451   0.00452   0.96422
   A27        1.58325   0.00014   0.00000   0.00048   0.00048   1.58372
   A28        2.16209  -0.00014   0.00000  -0.00078  -0.00079   2.16130
   A29        1.98980  -0.00012   0.00000  -0.00092  -0.00092   1.98888
   A30        2.13130   0.00026   0.00000   0.00170   0.00170   2.13301
   A31        1.79586   0.00034   0.00000   0.00356   0.00356   1.79942
   A32        2.24928  -0.00009   0.00000   0.00085   0.00085   2.25014
   A33        2.26083  -0.00022   0.00000  -0.00071  -0.00071   2.26012
   A34        1.81634   0.00018   0.00000   0.00149   0.00149   1.81783
   A35        2.09113  -0.00005   0.00000  -0.00002  -0.00003   2.09110
   A36        1.97490   0.00001   0.00000  -0.00096  -0.00096   1.97394
   A37        1.76474  -0.00009   0.00000  -0.00091  -0.00091   1.76382
   A38        2.09570  -0.00033   0.00000  -0.00199  -0.00199   2.09371
   A39        1.64329   0.00013   0.00000   0.00091   0.00091   1.64420
   A40        2.10514  -0.00032   0.00000  -0.00196  -0.00196   2.10318
   A41        1.37876   0.00028   0.00000   0.00117   0.00117   1.37992
   A42        1.79614  -0.00013   0.00000  -0.00119  -0.00118   1.79495
   A43        1.47442   0.00027   0.00000   0.00149   0.00149   1.47591
   A44        1.85892  -0.00005   0.00000  -0.00022  -0.00022   1.85870
   A45        1.77603   0.00004   0.00000  -0.00165  -0.00165   1.77438
   A46        1.58370   0.00016   0.00000   0.00007   0.00006   1.58376
   A47        2.02296  -0.00025   0.00000  -0.00347  -0.00347   2.01949
   A48        1.66477   0.00016   0.00000  -0.00011  -0.00012   1.66465
   A49        3.10123   0.00010   0.00000   0.00484   0.00484   3.10607
   A50        3.08780   0.00011   0.00000   0.00082   0.00083   3.08863
    D1       -0.00179  -0.00002   0.00000  -0.00064  -0.00064  -0.00243
    D2        3.14070   0.00001   0.00000   0.00054   0.00054   3.14124
    D3        3.14037  -0.00001   0.00000  -0.00034  -0.00034   3.14003
    D4       -0.00033   0.00002   0.00000   0.00085   0.00085   0.00052
    D5        0.00081   0.00001   0.00000   0.00040   0.00040   0.00121
    D6        3.12206   0.00003   0.00000   0.00130   0.00130   3.12336
    D7       -3.14024   0.00001   0.00000   0.00069   0.00069  -3.13956
    D8       -0.01899   0.00003   0.00000   0.00159   0.00159  -0.01741
    D9       -0.00017  -0.00003   0.00000  -0.00142  -0.00143  -0.00160
   D10       -3.14094   0.00000   0.00000  -0.00033  -0.00033  -3.14127
   D11        3.13895   0.00004   0.00000   0.00172   0.00172   3.14067
   D12       -0.00095  -0.00003   0.00000  -0.00153  -0.00153  -0.00248
   D13        0.01825   0.00002   0.00000   0.00078   0.00078   0.01903
   D14       -3.12165  -0.00006   0.00000  -0.00247  -0.00247  -3.12412
   D15       -1.24177   0.00008   0.00000   0.00125   0.00125  -1.24052
   D16       -1.13515   0.00002   0.00000   0.00092   0.00092  -1.13423
   D17        0.79056   0.00015   0.00000   0.00314   0.00314   0.79370
   D18        0.95682  -0.00004   0.00000   0.00139   0.00140   0.95822
   D19       -3.03113  -0.00027   0.00000  -0.00211  -0.00211  -3.03324
   D20        2.74162   0.00023   0.00000   0.00167   0.00166   2.74328
   D21        1.87647   0.00011   0.00000   0.00232   0.00232   1.87879
   D22        1.98309   0.00005   0.00000   0.00199   0.00199   1.98508
   D23       -2.37438   0.00018   0.00000   0.00421   0.00421  -2.37017
   D24       -2.20812  -0.00001   0.00000   0.00246   0.00247  -2.20565
   D25        0.08712  -0.00024   0.00000  -0.00105  -0.00104   0.08607
   D26       -0.42332   0.00026   0.00000   0.00274   0.00273  -0.42059
   D27       -0.52891   0.00002   0.00000  -0.00069  -0.00069  -0.52960
   D28        1.49212   0.00000   0.00000   0.00845   0.00845   1.50057
   D29       -0.27235  -0.00016   0.00000  -0.00082  -0.00082  -0.27317
   D30        2.92973  -0.00010   0.00000   0.00129   0.00128   2.93102
   D31        0.61632  -0.00001   0.00000   0.00078   0.00077   0.61709
   D32        0.82940  -0.00016   0.00000  -0.00027  -0.00028   0.82911
   D33       -1.18387   0.00005   0.00000   0.00298   0.00297  -1.18090
   D34       -0.91055  -0.00028   0.00000   0.00031   0.00031  -0.91024
   D35        2.62647   0.00009   0.00000   0.00095   0.00096   2.62743
   D36        0.31306   0.00017   0.00000   0.00045   0.00045   0.31351
   D37        0.52614   0.00003   0.00000  -0.00061  -0.00061   0.52553
   D38       -1.48712   0.00023   0.00000   0.00265   0.00265  -1.48448
   D39       -1.21381  -0.00009   0.00000  -0.00003  -0.00002  -1.21383
   D40        0.55581   0.00014   0.00000   0.00455   0.00456   0.56036
   D41        1.86376   0.00008   0.00000   0.00098   0.00097   1.86473
   D42       -0.80952   0.00021   0.00000   0.00757   0.00760  -0.80192
   D43        0.49843   0.00015   0.00000   0.00400   0.00401   0.50245
   D44       -2.21310  -0.00004   0.00000  -0.00679  -0.00679  -2.21988
   D45       -0.50866  -0.00009   0.00000  -0.00361  -0.00361  -0.51227
   D46       -0.21959  -0.00011   0.00000  -0.00257  -0.00258  -0.22216
   D47       -2.66135  -0.00011   0.00000   0.00291   0.00290  -2.65845
   D48        2.07320  -0.00013   0.00000  -0.00249  -0.00249   2.07071
   D49        0.54297  -0.00004   0.00000   0.00010   0.00010   0.54307
   D50       -1.93750  -0.00011   0.00000  -0.00868  -0.00868  -1.94618
   D51        0.28024   0.00017   0.00000   0.00094   0.00095   0.28119
   D52       -2.94772   0.00002   0.00000  -0.00132  -0.00132  -2.94904
   D53       -0.90229   0.00027   0.00000   0.00244   0.00244  -0.89985
   D54       -0.64467   0.00005   0.00000   0.00061   0.00061  -0.64406
   D55        0.78505   0.00039   0.00000   0.00282   0.00282   0.78787
   D56        1.21721  -0.00004   0.00000   0.00032   0.00032   1.21753
   D57       -2.62788  -0.00024   0.00000  -0.00307  -0.00307  -2.63096
   D58       -0.58246   0.00001   0.00000   0.00069   0.00069  -0.58177
   D59       -0.32484  -0.00021   0.00000  -0.00114  -0.00115  -0.32598
   D60        1.10488   0.00013   0.00000   0.00107   0.00106   1.10595
   D61        1.53704  -0.00030   0.00000  -0.00143  -0.00143   1.53561
   D62        1.45794  -0.00011   0.00000  -0.00475  -0.00475   1.45318
   D63       -2.83093   0.00028   0.00000  -0.00017  -0.00017  -2.83110
   D64       -2.44884  -0.00018   0.00000  -0.00358  -0.00357  -2.45242
   D65       -0.87646   0.00000   0.00000  -0.00326  -0.00325  -0.87971
   D66       -0.55820  -0.00021   0.00000  -0.00404  -0.00404  -0.56224
   D67       -1.10417  -0.00016   0.00000   0.00337   0.00337  -1.10080
   D68        3.04361  -0.00037   0.00000   0.00083   0.00083   3.04444
   D69        2.61336   0.00003   0.00000   0.00342   0.00341   2.61677
   D70        1.23909  -0.00031   0.00000   0.00216   0.00216   1.24125
   D71        0.77746   0.00012   0.00000   0.00475   0.00474   0.78220
   D72       -1.41710   0.00013   0.00000   0.00504   0.00504  -1.41207
   D73        2.73067  -0.00009   0.00000   0.00250   0.00250   2.73317
   D74        2.30043   0.00032   0.00000   0.00509   0.00508   2.30551
   D75        0.92615  -0.00003   0.00000   0.00383   0.00383   0.92999
   D76        0.46453   0.00041   0.00000   0.00642   0.00641   0.47094
   D77        0.00066   0.00004   0.00000   0.00171   0.00171   0.00237
   D78       -3.13927  -0.00003   0.00000  -0.00147  -0.00148  -3.14075
         Item               Value     Threshold  Converged?
 Maximum Force            0.002564     0.000450     NO 
 RMS     Force            0.000417     0.000300     NO 
 Maximum Displacement     0.019870     0.001800     NO 
 RMS     Displacement     0.004465     0.001200     NO 
 Predicted change in Energy=-8.276324D-05
 GradGradGradGradGradGradGradGradGradGradGradGradGradGradGradGradGradGrad

                          Input orientation:                          
 ---------------------------------------------------------------------
 Center     Atomic      Atomic             Coordinates (Angstroms)
 Number     Number       Type             X           Y           Z
 ---------------------------------------------------------------------
      1          6           0        0.156659   -1.252277    0.256302
      2          6           0        1.496843   -1.101699    0.291243
      3          1           0       -0.384833   -2.165448    0.465534
      4          1           0        2.242532   -1.847468    0.530214
      5          7           0       -0.522675   -0.081047   -0.089485
      6          1           0       -2.420317   -0.868291   -1.627276
      7          1           0       -3.135554   -0.777299   -1.346613
      8          1           0       -2.183916    2.137987    2.020590
      9          1           0       -2.925497    2.250645    2.025182
     10          1           0       -3.311912   -0.595630    0.802243
     11          1           0       -2.674812   -0.548245    1.239251
     12          1           0       -2.820181    1.403171   -0.792926
     13          1           0       -2.704043    1.563980   -0.044243
     14          1           0       -5.309441   -0.381334   -0.404836
     15          1           0       -5.241826   -1.126789   -0.350583
     16          1           0        0.028806    1.929109   -0.590164
     17         16           0        1.942622    0.511343   -0.107284
     18          6           0        0.334608    0.928969   -0.308985
     19          4           0       -2.110661    0.004442   -0.225455
 ---------------------------------------------------------------------
                    Distance matrix (angstroms):
                    1          2          3          4          5
     1  C    0.000000
     2  C    1.349069   0.000000
     3  H    1.082068   2.168558   0.000000
     4  H    2.186355   1.081356   2.647327   0.000000
     5  N    1.397442   2.294589   2.161429   3.339258   0.000000
     6  H    3.214983   4.367990   3.194631   5.230269   2.566242
     7  H    3.692372   4.924116   3.574536   5.795823   2.981993
     8  H    4.481618   5.199442   4.916752   6.139912   3.483712
     9  H    4.989899   5.813936   5.328166   6.762987   3.960071
    10  H    3.572145   4.862237   3.338487   5.700259   2.973183
    11  H    3.078811   4.313668   2.908262   5.135269   2.572062
    12  H    4.124786   5.107494   4.499965   6.160229   2.824228
    13  H    4.025575   4.986566   4.421227   6.036273   2.732495
    14  H    5.574397   6.879605   5.309650   7.749592   4.806532
    15  H    5.433939   6.769212   5.033412   7.570389   4.840675
    16  H    3.294552   3.481065   4.248646   4.518669   2.143721
    17  S    2.536181   1.720305   3.593101   2.461776   2.535534
    18  C    2.260321   2.415508   3.269999   3.471748   1.342851
    19  Be   2.636697   3.808492   2.857336   4.790710   1.596088
                    6          7          8          9         10
     6  H    0.000000
     7  H    0.773703   0.000000
     8  H    4.732919   4.554401   0.000000
     9  H    4.829433   4.536692   0.750104   0.000000
    10  H    2.602278   2.163722   3.198344   3.121887   0.000000
    11  H    2.895544   2.636559   2.840302   2.917931   0.774027
    12  H    2.452666   2.271669   2.976686   2.944663   2.604145
    13  H    2.915894   2.713662   2.205346   2.191591   2.397908
    14  H    3.174670   2.401982   4.690264   4.302963   2.343734
    15  H    3.107681   2.355971   5.062809   4.734627   2.309914
    16  H    3.859954   4.232025   3.428674   3.958703   4.412879
    17  S    4.821721   5.383717   4.919567   5.592063   5.446352
    18  C    3.543677   4.003755   3.637528   4.221783   4.105647
    19  Be   1.680075   1.708368   3.098726   3.282493   1.690933
                   11         12         13         14         15
    11  H    0.000000
    12  H    2.821153   0.000000
    13  H    2.471782   0.774516   0.000000
    14  H    3.110009   3.087311   3.271449   0.000000
    15  H    3.074385   3.529976   3.711391   0.750479   0.000000
    16  H    4.097998   2.904212   2.810660   5.819740   6.097169
    17  S    4.925097   4.893848   4.764821   7.312854   7.372853
    18  C    3.692669   3.226725   3.115562   5.794944   5.943440
    19  Be   1.664060   1.667898   1.678422   3.226949   3.331596
                   16         17         18         19
    16  H    0.000000
    17  S    2.430211   0.000000
    18  C    1.082985   1.673560   0.000000
    19  Be   2.900805   4.086565   2.615543   0.000000
 Stoichiometry    C3H13BeNS(2+)
 Framework group  C1[X(C3H13BeNS)]
 Deg. of freedom    51
 Full point group                 C1      NOp   1
 Largest Abelian subgroup         C1      NOp   1
 Largest concise Abelian subgroup C1      NOp   1
                         Standard orientation:                         
 ---------------------------------------------------------------------
 Center     Atomic      Atomic             Coordinates (Angstroms)
 Number     Number       Type             X           Y           Z
 ---------------------------------------------------------------------
      1          6           0        0.154645   -1.253282    0.254693
      2          6           0        1.495032   -1.104021    0.287410
      3          1           0       -0.387418   -2.165816    0.465223
      4          1           0        2.240363   -1.850420    0.525533
      5          7           0       -0.524079   -0.081539   -0.090552
      6          1           0       -2.424971   -0.867614   -1.624924
      7          1           0       -3.139666   -0.775779   -1.343155
      8          1           0       -2.179721    2.140134    2.021145
      9          1           0       -2.921182    2.253532    2.026876
     10          1           0       -3.312390   -0.592929    0.805896
     11          1           0       -2.674542   -0.545974    1.241858
     12          1           0       -2.821236    1.404635   -0.791000
     13          1           0       -2.703735    1.565679   -0.042579
     14          1           0       -5.311642   -0.377210   -0.398073
     15          1           0       -5.244681   -1.122707   -0.343579
     16          1           0        0.028594    1.927833   -0.593061
     17         16           0        1.941774    0.508390   -0.112590
     18          6           0        0.333854    0.927521   -0.311904
     19          4           0       -2.112196    0.005467   -0.224012
 ---------------------------------------------------------------------
 Rotational constants (GHZ):      4.9526703      1.5329588      1.2894077
 Standard basis: 6-311+G(d,p) (5D, 7F)
 There are   218 symmetry adapted basis functions of A   symmetry.
 Integral buffers will be    262144 words long.
 Raffenetti 2 integral format.
 Two-electron integral symmetry is turned on.
   218 basis functions,   334 primitive gaussians,   224 cartesian basis functions
    28 alpha electrons       28 beta electrons
       nuclear repulsion energy       311.5816187391 Hartrees.
 NAtoms=   19 NActive=   19 NUniq=   19 SFac= 7.50D-01 NAtFMM=   80 NAOKFM=F Big=F
 Nuclear repulsion after empirical dispersion term =      311.5718611109 Hartrees.
 One-electron integrals computed using PRISM.
 NBasis=   218 RedAO= T  NBF=   218
 NBsUse=   218 1.00D-06 NBFU=   218
 Initial guess read from the read-write file.
 B after Tr=     0.000000    0.000000    0.000000
         Rot=    1.000000    0.000000    0.000000    0.000000 Ang=   0.00 deg.
 Initial guess orbital symmetries:
       Occupied  (A) (A) (A) (A) (A) (A) (A) (A) (A) (A) (A) (A)
                 (A) (A) (A) (A) (A) (A) (A) (A) (A) (A) (A) (A)
                 (A) (A) (A) (A)
       Virtual   (A) (A) (A) (A) (A) (A) (A) (A) (A) (A) (A) (A)
                 (A) (A) (A) (A) (A) (A) (A) (A) (A) (A) (A) (A)
                 (A) (A) (A) (A) (A) (A) (A) (A) (A) (A) (A) (A)
                 (A) (A) (A) (A) (A) (A) (A) (A) (A) (A) (A) (A)
                 (A) (A) (A) (A) (A) (A) (A) (A) (A) (A) (A) (A)
                 (A) (A) (A) (A) (A) (A) (A) (A) (A) (A) (A) (A)
                 (A) (A) (A) (A) (A) (A) (A) (A) (A) (A) (A) (A)
                 (A) (A) (A) (A) (A) (A) (A) (A) (A) (A) (A) (A)
                 (A) (A) (A) (A) (A) (A) (A) (A) (A) (A) (A) (A)
                 (A) (A) (A) (A) (A) (A) (A) (A) (A) (A) (A) (A)
                 (A) (A) (A) (A) (A) (A) (A) (A) (A) (A) (A) (A)
                 (A) (A) (A) (A) (A) (A) (A) (A) (A) (A) (A) (A)
                 (A) (A) (A) (A) (A) (A) (A) (A) (A) (A) (A) (A)
                 (A) (A) (A) (A) (A) (A) (A) (A) (A) (A) (A) (A)
                 (A) (A) (A) (A) (A) (A) (A) (A) (A) (A) (A) (A)
                 (A) (A) (A) (A) (A) (A) (A) (A) (A) (A)
 Requested convergence on RMS density matrix=1.00D-08 within 128 cycles.
 Requested convergence on MAX density matrix=1.00D-06.
 Requested convergence on             energy=1.00D-06.
 No special actions if energy rises.
 FoFJK:  IHMeth= 1 ICntrl=     0 DoSepK=T KAlg= 1 I1Cent= 0 FoldK=F
 FoFJK:  IHMeth= 1 ICntrl=     0 DoSepK=T KAlg= 1 I1Cent= 0 FoldK=F
 FoFJK:  IHMeth= 1 ICntrl=     0 DoSepK=T KAlg= 1 I1Cent= 0 FoldK=F
 FoFJK:  IHMeth= 1 ICntrl=     0 DoSepK=T KAlg= 1 I1Cent= 0 FoldK=F
 FoFJK:  IHMeth= 1 ICntrl=     0 DoSepK=T KAlg= 1 I1Cent= 0 FoldK=F
 FoFJK:  IHMeth= 1 ICntrl=     0 DoSepK=T KAlg= 1 I1Cent= 0 FoldK=F
 FoFJK:  IHMeth= 1 ICntrl=     0 DoSepK=T KAlg= 1 I1Cent= 0 FoldK=F
 FoFJK:  IHMeth= 1 ICntrl=     0 DoSepK=T KAlg= 1 I1Cent= 0 FoldK=F
 FoFJK:  IHMeth= 1 ICntrl=     0 DoSepK=T KAlg= 1 I1Cent= 0 FoldK=F
 FoFJK:  IHMeth= 1 ICntrl=     0 DoSepK=T KAlg= 1 I1Cent= 0 FoldK=F
 SCF Done:  E(RwB97XD) =  -589.038582067     A.U. after   10 cycles
             Convg  =    0.5703D-08             -V/T =  2.0024
 Calling FoFJK, ICntrl=      2127 FMM=F ISym2X=0 I1Cent= 0 IOpClX= 0 NMat=1 NMatS=1 NMatT=0.
 FoFJK:  IHMeth= 1 ICntrl=  2127 DoSepK=T KAlg= 1 I1Cent= 0 FoldK=F
 ***** Axes restored to original set *****
 -------------------------------------------------------------------
 Center     Atomic                   Forces (Hartrees/Bohr)
 Number     Number              X              Y              Z
 -------------------------------------------------------------------
      1        6          -0.000554102    0.000347523   -0.000181327
      2        6           0.000278689    0.000248447    0.000029385
      3        1           0.000061862    0.000006420   -0.000024364
      4        1          -0.000023297   -0.000004640    0.000008858
      5        7           0.000650086   -0.000476521    0.000175171
      6        1          -0.000456395   -0.000384919   -0.000563575
      7        1          -0.000260260   -0.000429797   -0.000741136
      8        1           0.000081389   -0.000302762   -0.000287496
      9        1           0.000147918   -0.000246227   -0.000098294
     10        1          -0.000385486   -0.000258895    0.000789268
     11        1          -0.000682851   -0.000241309    0.000725876
     12        1          -0.000416890    0.000792489   -0.000015367
     13        1          -0.000516034    0.000859989   -0.000402918
     14        1           0.000295455   -0.000046599   -0.000103971
     15        1           0.000300423    0.000227302    0.000118048
     16        1          -0.000032360   -0.000068262    0.000004167
     17       16          -0.000013474   -0.000363976    0.000009290
     18        6          -0.000254929    0.000424974    0.000165175
     19        4           0.001780257   -0.000083238    0.000393212
 -------------------------------------------------------------------
 Cartesian Forces:  Max     0.001780257 RMS     0.000437175

 GradGradGradGradGradGradGradGradGradGradGradGradGradGradGradGradGradGrad
 Berny optimization.
 Using GEDIIS/GDIIS optimizer.
 Internal  Forces:  Max     0.000932336 RMS     0.000185731
 Search for a local minimum.
 Step number   2 out of a maximum of  114
 All quantities printed in internal units (Hartrees-Bohrs-Radians)
 Mixed Optimization -- En-DIIS/RFO-DIIS
 Swaping is turned off.
 Update second derivatives using D2CorX and points    1    2
 DE= -1.26D-04 DEPred=-8.28D-05 R= 1.53D+00
 SS=  1.41D+00  RLast= 4.73D-02 DXNew= 5.0454D-01 1.4192D-01
 Trust test= 1.53D+00 RLast= 4.73D-02 DXMaxT set to 3.00D-01
     Eigenvalues ---    0.00318   0.00392   0.00534   0.00693   0.00796
     Eigenvalues ---    0.00869   0.01363   0.01640   0.01969   0.01978
     Eigenvalues ---    0.02107   0.02265   0.02335   0.02351   0.02449
     Eigenvalues ---    0.02595   0.02628   0.02797   0.03001   0.04066
     Eigenvalues ---    0.04782   0.05566   0.06632   0.07334   0.07859
     Eigenvalues ---    0.08226   0.08346   0.09877   0.11241   0.12479
     Eigenvalues ---    0.13368   0.15993   0.16000   0.16041   0.22475
     Eigenvalues ---    0.23404   0.24952   0.25018   0.25671   0.26693
     Eigenvalues ---    0.28033   0.29186   0.32363   0.33145   0.35777
     Eigenvalues ---    0.35861   0.36353   0.37885   0.44454   0.52496
     Eigenvalues ---    0.600601000.000001000.000001000.000001000.00000
     Eigenvalues --- 1000.000001000.000001000.000001000.000001000.00000
     Eigenvalues --- 1000.000001000.000001000.000001000.000001000.00000
     Eigenvalues --- 1000.000001000.000001000.000001000.000001000.00000
     Eigenvalues --- 1000.000001000.000001000.000001000.000001000.00000
     Eigenvalues --- 1000.000001000.000001000.000001000.000001000.00000
     Eigenvalues --- 1000.000001000.000001000.000001000.000001000.00000
     Eigenvalues --- 1000.000001000.000001000.000001000.000001000.00000
     Eigenvalues --- 1000.000001000.000001000.000001000.000001000.00000
     Eigenvalues --- 1000.000001000.000001000.000001000.000001000.00000
     Eigenvalues --- 1000.000001000.000001000.000001000.000001000.00000
     Eigenvalues --- 1000.000001000.000001000.000001000.000001000.00000
     Eigenvalues --- 1000.000001000.000001000.000001000.000001000.00000
     Eigenvalues --- 1000.000001000.000001000.000001000.000001000.00000
     Eigenvalues --- 1000.000001000.000001000.000001000.000001000.00000
     Eigenvalues --- 1000.000001000.000001000.000001000.000001000.00000
     Eigenvalues --- 1000.000001000.000001000.000001000.000001000.00000
     Eigenvalues --- 1000.000001000.000001000.000001000.000001000.00000
     Eigenvalues --- 1000.000001000.000001000.000001000.000001000.00000
     Eigenvalues --- 1000.000001000.000001000.000001000.000001000.00000
     Eigenvalues --- 1000.000001000.000001000.000001000.000001000.00000
 En-DIIS/RFO-DIIS IScMMF=        0 using points:     2    1
 RFO step:  Lambda=-2.95695747D-05.
 DIIS coeffs:      2.16621     -1.16621
 Iteration  1 RMS(Cart)=  0.00984223 RMS(Int)=  0.00009676
 Iteration  2 RMS(Cart)=  0.00006377 RMS(Int)=  0.00003454
 Iteration  3 RMS(Cart)=  0.00000000 RMS(Int)=  0.00003454
 Variable       Old X    -DE/DX   Delta X   Delta X   Delta X     New X
                                  (DIIS)     (GDIIS)  (Total)
    R1        2.54937   0.00017   0.00549  -0.00252   0.00297   2.55234
    R2        2.04481  -0.00004   0.00140  -0.00105   0.00036   2.04517
    R3        2.64078  -0.00051  -0.00172  -0.00148  -0.00320   2.63758
    R4        2.04347  -0.00001   0.00068  -0.00045   0.00022   2.04369
    R5        3.25090  -0.00023   0.00049  -0.00172  -0.00124   3.24967
    R6        2.53762  -0.00001   0.00149  -0.00089   0.00060   2.53822
    R7        3.01617   0.00012   0.00798  -0.00355   0.00443   3.02060
    R8        1.46209  -0.00016  -0.00382   0.00124  -0.00257   1.45951
    R9        3.17488   0.00084   0.01844   0.01132   0.02976   3.20464
   R10        4.53909  -0.00013  -0.00619  -0.00875  -0.01498   4.52411
   R11        4.45214  -0.00002  -0.00146  -0.00446  -0.00584   4.44630
   R12        3.22835   0.00058   0.00955   0.00817   0.01774   3.24609
   R13        1.41749  -0.00008  -0.00359   0.00161  -0.00200   1.41549
   R14        5.36739  -0.00024  -0.00583  -0.01127  -0.01707   5.35033
   R15        4.16750  -0.00003  -0.00723  -0.01004  -0.01721   4.15029
   R16        4.14151  -0.00024  -0.01244  -0.00924  -0.02170   4.11980
   R17        1.46270  -0.00021  -0.00353   0.00111  -0.00246   1.46024
   R18        4.42901  -0.00005  -0.00011  -0.00146  -0.00154   4.42748
   R19        4.36511  -0.00023  -0.00857  -0.01130  -0.01993   4.34518
   R20        3.19540   0.00058   0.01041   0.00771   0.01811   3.21351
   R21        3.14462   0.00080   0.01476   0.01167   0.02635   3.17097
   R22        1.46362  -0.00016  -0.00388   0.00137  -0.00248   1.46114
   R23        3.15187   0.00093   0.01873   0.01330   0.03201   3.18388
   R24        3.17176   0.00053   0.01004   0.00489   0.01488   3.18664
   R25        1.41820  -0.00006  -0.00363   0.00157  -0.00199   1.41621
   R26        2.04654  -0.00006   0.00166  -0.00129   0.00037   2.04691
   R27        3.16257   0.00010   0.00253  -0.00082   0.00171   3.16428
    A1        2.19730  -0.00004   0.00107  -0.00107   0.00000   2.19730
    A2        1.97772  -0.00002  -0.00078   0.00011  -0.00067   1.97705
    A3        2.10817   0.00006  -0.00029   0.00096   0.00067   2.10884
    A4        2.23165  -0.00001   0.00016  -0.00032  -0.00016   2.23149
    A5        1.93486  -0.00002  -0.00051   0.00011  -0.00041   1.93446
    A6        2.11667   0.00004   0.00034   0.00022   0.00056   2.11723
    A7        1.93959   0.00020   0.00180   0.00060   0.00240   1.94199
    A8        2.15272   0.00003  -0.00015   0.00037   0.00022   2.15294
    A9        2.19070  -0.00022  -0.00163  -0.00094  -0.00257   2.18812
   A10        2.86640   0.00002   0.00034   0.00091   0.00130   2.86770
   A11        1.78258  -0.00020  -0.00203  -0.00203  -0.00407   1.77852
   A12        1.90368  -0.00025  -0.00486  -0.00436  -0.00923   1.89445
   A13        1.54365  -0.00009  -0.00023  -0.00089  -0.00107   1.54258
   A14        0.99502   0.00033   0.00592   0.00548   0.01140   1.00642
   A15        2.97828   0.00005   0.00073   0.00015   0.00082   2.97910
   A16        2.95992  -0.00003  -0.00049  -0.00076  -0.00117   2.95875
   A17        1.83382  -0.00025  -0.00485  -0.00486  -0.00967   1.82416
   A18        1.95176  -0.00018  -0.00245  -0.00154  -0.00399   1.94777
   A19        1.93421  -0.00001   0.00208   0.00221   0.00423   1.93844
   A20        1.43985  -0.00020  -0.00530  -0.00565  -0.01100   1.42885
   A21        3.03632   0.00006  -0.00108  -0.00106  -0.00211   3.03420
   A22        1.83335  -0.00037  -0.00690  -0.00725  -0.01424   1.81912
   A23        2.86747  -0.00002  -0.00008   0.00033   0.00022   2.86770
   A24        2.01396  -0.00036  -0.00516  -0.00556  -0.01078   2.00317
   A25        0.94654   0.00028   0.00477   0.00398   0.00877   0.95531
   A26        0.96422   0.00029   0.00527   0.00468   0.00998   0.97420
   A27        1.58372   0.00003   0.00056   0.00032   0.00087   1.58459
   A28        2.16130   0.00004  -0.00092   0.00070  -0.00022   2.16108
   A29        1.98888  -0.00019  -0.00107  -0.00112  -0.00219   1.98669
   A30        2.13301   0.00014   0.00199   0.00043   0.00241   2.13541
   A31        1.79942   0.00016   0.00415   0.00266   0.00680   1.80622
   A32        2.25014   0.00001   0.00099   0.00180   0.00281   2.25295
   A33        2.26012  -0.00010  -0.00082   0.00014  -0.00068   2.25944
   A34        1.81783   0.00004   0.00174   0.00062   0.00236   1.82019
   A35        2.09110  -0.00001  -0.00004   0.00075   0.00068   2.09177
   A36        1.97394  -0.00002  -0.00112  -0.00176  -0.00286   1.97108
   A37        1.76382  -0.00002  -0.00107  -0.00043  -0.00151   1.76232
   A38        2.09371  -0.00012  -0.00232  -0.00129  -0.00360   2.09011
   A39        1.64420   0.00002   0.00106   0.00025   0.00131   1.64551
   A40        2.10318  -0.00015  -0.00228  -0.00035  -0.00261   2.10057
   A41        1.37992   0.00011   0.00136   0.00039   0.00172   1.38164
   A42        1.79495  -0.00005  -0.00138  -0.00079  -0.00216   1.79280
   A43        1.47591   0.00007   0.00174  -0.00055   0.00121   1.47712
   A44        1.85870  -0.00004  -0.00025  -0.00008  -0.00034   1.85836
   A45        1.77438   0.00001  -0.00193  -0.00271  -0.00464   1.76974
   A46        1.58376   0.00007   0.00007  -0.00058  -0.00053   1.58323
   A47        2.01949  -0.00008  -0.00405  -0.00254  -0.00662   2.01287
   A48        1.66465   0.00009  -0.00014  -0.00017  -0.00038   1.66428
   A49        3.10607   0.00006   0.00565   0.00180   0.00744   3.11351
[...]
 18133,0.01087853,-0.00762571,0.01304373,-0.01012098,0.00404099,-0.0043
 0235,-0.00436000,0.00054314,0.63822460,0.05740906,-0.19977161,0.044016
 85,0.06283939,0.00002277,0.00647751,0.02262906,-0.01448306,0.00433892,
 0.00034467,0.00301696,0.00130884,0.05306695,0.52213128,-0.02164484,0.0
 4360721,-0.07532461,-0.02307954,0.00292502,0.00609781,-0.00545947,0.00
 232631,-0.00541530,-0.00087163,0.00099316,0.00704593,0.02039396,-0.114
 91535,0.14859423,0.00055513,-0.00090814,0.00047345,-0.00058560,-0.0002
 2639,-0.00000975,0.00010512,-0.00000713,-0.00020036,0.00000714,-0.0000
 3342,-0.00001766,-0.00751582,-0.00346709,-0.00343586,0.27973308,0.0001
 1710,0.00042040,-0.00003574,0.00011977,-0.00008029,0.00000873,-0.00002
 104,-0.00002475,0.00024431,0.00002345,0.00000549,-0.00003301,-0.000386
 38,0.00019681,-0.00002404,-0.03740176,0.01988448,-0.00033769,0.0002183
 6,0.00004884,0.00017737,0.00001883,-0.00006822,-0.00001287,0.00004541,
 -0.00006295,-0.00000564,0.00002304,0.00000199,-0.00003239,0.00040796,0
 .00022346,-0.08923698,0.02637666,0.05260975,0.00013212,0.00004543,-0.0
 0017665,0.00000595,-0.00016393,0.00006862,-0.00006340,0.00013813,-0.00
 006100,-0.00002717,0.00005455,0.00000942,0.00153426,-0.00064016,-0.000
 41005,-0.27425051,0.03581510,0.08681706,0.28528129,0.00024501,-0.00042
 519,0.00014430,-0.00043410,-0.00011356,0.00005042,0.00000916,0.0000343
 9,-0.00017855,0.00000173,-0.00001311,0.00001201,-0.00196485,0.00014977
 ,-0.00073344,0.03892482,-0.00999516,-0.01733680,-0.03173567,0.01864192
 ,0.00048196,-0.00061039,0.00050624,-0.00026592,-0.00012252,-0.00008906
 ,0.00000012,-0.00004752,-0.00005697,0.00000375,-0.00003297,-0.00001451
 ,-0.00297284,-0.00142138,-0.00032405,0.09183390,-0.01689347,-0.0364758
 3,-0.08275390,0.02176722,0.04736852,0.00040402,-0.00053022,0.00041509,
 -0.00041566,-0.00007097,-0.00007199,0.00000346,-0.00001015,0.00000114,
 -0.00000236,-0.00003160,-0.00001562,-0.00185810,0.00104402,0.00101605,
 0.00014369,0.00008393,0.00002447,-0.00020052,0.00008044,0.00013729,0.3
 4140590,-0.00001836,0.00000012,-0.00000470,0.00007527,-0.00000191,-0.0
 0001136,-0.00001640,0.00000171,-0.00001239,-0.00000575,0.00000416,0.00
 000590,0.00064983,-0.00032925,-0.00045442,-0.00011970,-0.00000339,-0.0
 0005445,0.00016393,-0.00006439,-0.00010405,-0.05895851,0.01674813,-0.0
 0017766,0.00023194,-0.00003678,0.00017589,0.00011086,-0.00006610,-0.00
 000923,0.00001772,0.00000139,0.00000413,0.00001525,0.00000073,0.000899
 78,-0.00050093,-0.00052367,-0.00015913,-0.00008442,-0.00000373,0.00020
 613,-0.00009925,-0.00011645,-0.06091731,0.01293680,0.01580957,-0.00019
 620,0.00032905,-0.00018176,0.00022165,0.00002903,-0.00000549,-0.000014
 73,0.00002098,-0.00001341,-0.00000279,0.00001933,-0.00001213,0.0010333
 8,-0.00037866,-0.00009477,-0.00027369,-0.00013584,-0.00004955,0.000351
 36,-0.00017379,-0.00023305,-0.33979025,0.06005356,0.06166138,0.3399051
 0,-0.00017130,0.00015132,-0.00015286,0.00010644,0.00006889,0.00006301,
 0.00000027,0.00000275,-0.00000041,0.00000923,0.00000321,-0.00000702,0.
 00028469,-0.00020099,-0.00025955,0.00001617,-0.00000118,-0.00001202,0.
 00000822,-0.00001540,-0.00002053,0.05956834,-0.01345751,-0.01087902,-0
 .05977252,0.01417975,-0.00000884,0.00001660,-0.00015245,0.00009526,-0.
 00001824,0.00009754,0.00000382,-0.00002291,-0.00001922,0.00000478,0.00
 000347,0.00000849,0.00038204,-0.00008485,-0.00013575,-0.00004098,-0.00
 003143,0.00001530,0.00005969,-0.00003641,-0.00004483,0.06111415,-0.011
 10915,-0.01332906,-0.06169269,0.01165994,0.01521394,0.00013556,0.00001
 839,-0.00001546,0.00005066,-0.00010602,0.00006961,-0.00008909,0.000133
 88,-0.00002508,-0.00002153,0.00004559,-0.00001755,0.00100993,-0.000723
 68,0.00068077,-0.00119072,0.00005824,-0.00081846,0.00179324,-0.0000254
 9,-0.00078104,-0.00008286,0.00041848,0.00027590,0.00037774,0.00010426,
 0.00001523,0.21860260,-0.00000712,-0.00017071,0.00004377,-0.00017105,-
 0.00004592,-0.00004210,-0.00000003,0.00020003,0.00009803,-0.00000757,0
 .00000553,-0.00001144,-0.00027498,0.00062962,-0.00024617,-0.00026277,0
 .00007279,-0.00065399,0.00067411,0.00019391,-0.00130000,0.00035669,-0.
 00089769,-0.00039292,-0.00079135,-0.00034830,-0.00000708,0.03366842,0.
 01278762,-0.00047396,0.00097076,0.00003245,0.00039365,-0.00002202,-0.0
 0006044,0.00002962,0.00002208,-0.00013787,-0.00000181,0.00004607,-0.00
 003657,0.00335874,0.00100258,-0.00044810,-0.00087413,0.00037286,-0.002
 06288,0.00246836,-0.00010136,-0.00386434,0.00035181,-0.00035298,0.0000
 4057,-0.00054021,-0.00020821,0.00013714,0.13194204,0.01341995,0.123523
 72,0.00027119,-0.00108515,-0.00001821,-0.00043223,-0.00004047,0.000124
 10,-0.00001981,0.00014870,0.00026318,-0.00000468,-0.00003056,0.0000149
 2,-0.00628697,-0.00230973,0.00265239,0.00075425,-0.00032604,0.00083532
 ,-0.00159850,0.00006501,0.00098279,-0.00020266,-0.00126108,-0.00062228
 ,-0.00035401,0.00002404,-0.00012975,-0.20218151,-0.02687929,-0.1441021
 8,0.20934983,0.00029912,0.00028325,-0.00009365,-0.00001095,-0.00007709
 ,0.00001215,0.00013323,-0.00017897,-0.00020517,0.00002813,0.00001022,0
 .00004090,-0.00090894,-0.00021968,0.00019718,-0.00041739,0.00021577,-0
 .00023282,0.00032835,-0.00002432,-0.00068868,-0.00054481,-0.00163379,-
 0.00100421,-0.00016925,-0.00042093,-0.00018222,-0.02857046,-0.00527402
 ,-0.01695268,0.02990229,0.01138886,0.00039008,-0.00046206,0.00019947,-
 0.00027227,-0.00007200,-0.00003357,0.00004684,-0.00000747,0.00016276,0
 .00000219,-0.00003008,0.00001091,-0.00158216,-0.00106923,0.00098564,-0
 .00052355,0.00019841,0.00017350,0.00067600,0.00005291,-0.00127053,-0.0
 0004281,-0.00085432,-0.00053897,-0.00042902,-0.00050149,-0.00022906,-0
 .13717781,-0.01517800,-0.11168131,0.13613605,0.01080033,0.13431423,-0.
 00026736,-0.00069239,0.00039412,-0.00019599,0.00023467,-0.00006676,0.0
 0001227,0.00000288,0.00002373,-0.00005241,-0.00005924,-0.00004299,-0.0
 0064095,0.00278016,-0.00070340,-0.00025398,-0.00022146,-0.00017730,0.0
 0072953,-0.00067857,-0.00005445,0.00013883,-0.00007731,-0.00006886,0.0
 0010413,-0.00007067,-0.00005019,0.00059070,-0.00041953,0.00074468,-0.0
 0044620,-0.00049195,0.00004337,0.01697511,-0.00007500,0.00069006,-0.00
 019098,0.00017309,-0.00009290,0.00006565,-0.00004280,0.00006190,-0.000
 03238,0.00003265,0.00004597,-0.00004413,0.00128556,-0.00131829,0.00033
 443,-0.00012208,-0.00192529,-0.00018380,0.00083718,-0.00269995,-0.0005
 8898,0.00053483,0.00005569,-0.00076809,-0.00097553,0.00022349,-0.00022
 326,0.00102665,-0.00067936,0.00093485,-0.00055248,-0.00095429,-0.00038
 881,0.00305702,0.05021032,0.00006179,0.00111839,-0.00008996,0.00040277
 ,-0.00027456,0.00010937,-0.00002643,0.00006513,-0.00003406,0.00001773,
 0.00006766,-0.00005959,0.00216532,-0.00186067,0.00075140,-0.00107371,-
 0.00218453,0.00031506,0.00165674,-0.00237134,-0.00066809,0.00075677,-0
 .00007075,-0.00079673,-0.00123620,0.00015166,-0.00036931,0.00008397,0.
 00022087,-0.00001251,-0.00017669,-0.00029808,-0.00006393,0.04814874,0.
 07857571,0.28905991,-0.00013797,-0.00092336,0.00003437,-0.00023519,0.0
 0015335,-0.00008908,0.00003481,-0.00004233,0.00000126,-0.00007166,-0.0
 0003589,0.00007691,-0.00172594,0.00314843,-0.00092561,-0.00012467,-0.0
 0006549,-0.00004173,0.00002129,-0.00013314,-0.00018185,-0.00058044,0.0
 0003846,-0.00014133,0.00046552,-0.00021347,0.00035298,-0.00001576,-0.0
 0049031,0.00006247,0.00006694,-0.00005859,0.00026380,-0.00884077,-0.01
 026295,-0.04534280,0.01602298,0.00001023,-0.00012511,0.00007913,-0.000
 17257,-0.00003140,0.00001351,-0.00001546,0.00001824,-0.00000413,0.0000
 0250,-0.00000303,0.00001296,-0.00030344,-0.00014729,-0.00006244,-0.000
 45600,-0.00034420,0.00038762,0.00082821,-0.00092624,-0.00020238,-0.000
 10697,-0.00039950,-0.00016811,0.00003146,-0.00012841,-0.00050304,0.000
 05811,-0.00092090,0.00028137,0.00023605,-0.00031345,0.00030308,-0.0085
 7198,-0.03365018,-0.07958466,0.00276717,0.05606533,-0.00008325,-0.0012
 1962,0.00048570,-0.00046984,0.00028280,-0.00013369,0.00004577,-0.00007
 915,0.00004538,-0.00003491,-0.00009208,0.00002572,-0.00263440,0.002429
 50,-0.00109555,0.00014798,0.00057579,-0.00000817,-0.00041444,0.0000730
 2,0.00011913,-0.00077564,-0.00049259,0.00000081,0.00113108,-0.00071089
 ,-0.00123294,-0.00124106,0.00137643,-0.00172233,0.00094663,0.00230890,
 0.00015920,-0.04209954,-0.08681561,-0.27952281,0.04254586,0.08421246,0
 .28190759,0.00008430,-0.00009480,0.00004251,-0.00004120,-0.00000789,-0
 .00001140,0.00000322,-0.00003673,0.00000898,0.00000778,-0.00001416,0.0
 0000744,-0.00029255,-0.00030655,0.00002293,-0.00058039,-0.00008920,-0.
 00009454,0.00001039,0.00013084,-0.00044165,0.00003062,-0.00002604,-0.0
 0000167,-0.00002548,-0.00001644,-0.00000769,-0.00084462,-0.00005938,0.
 00014229,-0.00049320,0.00001700,0.00007566,-0.00024944,-0.00015895,-0.
 00009249,-0.00013664,-0.00011788,0.00007878,0.00577071,0.00012620,-0.0
 0024332,0.00008103,-0.00008901,0.00000896,-0.00001169,0.00000985,-0.00
 005512,0.00000894,0.00001859,-0.00002733,0.00001023,-0.00065443,-0.000
 30959,0.00004826,-0.00084012,-0.00002052,-0.00003627,0.00086934,-0.000
 59515,-0.00034533,0.00006522,-0.00006424,-0.00005017,-0.00005435,0.000
 01467,0.00001397,0.00060087,-0.00056353,0.00060724,-0.00103781,0.00000
 438,-0.00002093,-0.00025437,-0.00008415,-0.00021979,-0.00031378,-0.000
 05870,0.00022021,0.02608149,0.34744151,-0.00001474,0.00005455,-0.00000
 137,0.00001542,-0.00000300,0.00000891,0.00000395,-0.00000217,-0.000023
 79,-0.00000190,0.00000279,-0.00000655,0.00009098,0.00005139,0.00016923
 ,0.00070260,0.00011575,0.00014513,-0.00043963,-0.00009381,0.00014032,0
 .00001064,-0.00000089,0.00000860,0.00001429,0.00000024,-0.00001538,-0.
 00003075,0.00023885,-0.00010234,-0.00051233,-0.00006656,0.00007666,0.0
 0013243,-0.00001857,0.00012431,-0.00003734,0.00004028,-0.00001147,-0.0
 0439348,-0.06616928,0.01466971,0.00004622,-0.00006745,0.00002992,-0.00
 002303,-0.00000368,-0.00001051,0.00000132,-0.00000979,0.00000356,0.000
 00216,-0.00000442,0.00000328,-0.00005253,-0.00014947,0.00001549,-0.000
 40961,-0.00008516,-0.00002932,-0.00066114,-0.00036720,0.00011877,0.000
 01763,-0.00002251,-0.00002010,-0.00002434,0.00000733,0.00000246,-0.001
 19613,-0.00037645,-0.00033674,-0.00041235,-0.00003818,-0.00009355,-0.0
 0006783,0.00002889,-0.00008157,-0.00000696,0.00004502,0.00008661,-0.00
 326988,-0.02610044,0.00466128,0.00587945,-0.00015029,0.00023661,-0.000
 08453,0.00008361,0.00000013,0.00001250,-0.00001693,0.00006756,-0.00001
 501,-0.00001927,0.00002932,-0.00001150,0.00075016,0.00045758,-0.000012
 61,0.00115974,0.00029946,0.00006300,-0.00126893,0.00029482,0.00079764,
 -0.00005503,0.00006480,0.00004085,0.00007315,-0.00000230,0.00000120,-0
 .00104583,0.00004986,-0.00104287,0.00106755,0.00021362,-0.00004304,0.0
 0007545,0.00004441,0.00009700,0.00008732,0.00003018,-0.00012602,-0.026
 42521,-0.34683690,0.06610214,0.02665465,0.34678633,0.00003424,-0.00004
 296,0.00002357,-0.00001753,0.00000044,0.00000310,0.00000467,-0.0000174
 5,-0.00000257,0.00000373,-0.00000662,0.00000010,-0.00015124,-0.0000803
 4,0.00014707,0.00017733,0.00001859,0.00010215,0.00026180,0.00041670,-0
 .00016533,0.00001010,-0.00002400,-0.00001050,-0.00000983,0.00000366,0.
 00002297,-0.00021179,-0.00054516,0.00025045,-0.00075428,-0.00007148,0.
 00001806,-0.00012833,-0.00005339,-0.00012885,0.00006012,-0.00000155,-0
 .00003022,0.00479458,0.06617446,-0.01423402,-0.00438698,-0.06600526,0.
 01484414,-0.00376331,-0.00311192,0.00035959,-0.00690444,0.00136816,-0.
 00100476,0.00098626,-0.00066435,0.00015198,0.00122938,0.00100714,-0.00
 032681,0.01160303,-0.02357427,0.00789161,0.00007727,0.00002244,-0.0000
 0148,-0.00005271,0.00002287,0.00002504,0.00009571,-0.00001581,0.000014
 35,-0.00009321,0.00003249,-0.00004789,-0.00002604,0.00001062,-0.000028
 58,0.00006438,0.00003087,0.00000120,-0.00017024,0.00008174,-0.00000908
 ,-0.00034072,-0.00010971,0.00005651,-0.00000397,0.00001386,-0.00000577
 ,-0.00000259,-0.00000126,0.00000025,0.08721653,-0.00484651,0.00059812,
 0.00091107,-0.00027855,0.00221234,0.00005743,0.00049735,-0.00021972,0.
 00055518,0.00024176,0.00039929,0.00042639,0.00829616,-0.01286322,0.003
 20874,0.00002463,-0.00000983,0.00003276,-0.00007585,0.00002835,0.00000
 781,-0.00001178,0.00001732,0.00006155,0.00000254,-0.00000281,-0.000037
 43,-0.00004410,0.00003446,-0.00007597,0.00008304,0.00002956,0.00003451
 ,0.00001949,-0.00002465,-0.00022483,0.00010268,0.00024603,0.00018326,0
 .00000084,0.00002941,-0.00000407,0.00001186,-0.00002561,0.00000542,-0.
 08858042,0.31040756,0.00081631,0.00107947,0.00457738,-0.00042843,0.000
 14429,0.00235073,-0.00018443,0.00047253,0.00141857,-0.00011425,0.00047
 658,0.00169593,-0.00137832,0.00118790,-0.00392678,-0.00010007,-0.00002
 286,0.00007570,-0.00000756,-0.00006862,-0.00005140,0.00010068,0.000100
 52,-0.00011181,-0.00010445,-0.00009909,-0.00000948,0.00003019,0.000026
 34,-0.00005054,0.00003549,0.00003625,0.00006915,-0.00017590,-0.0002521
 6,0.00016627,0.00019183,0.00026794,0.00009687,0.00000262,-0.00000474,0
 .00000702,-0.00000120,0.00000554,-0.00000289,0.02983444,-0.08945162,0.
 04995808,-0.02836364,-0.00412717,-0.00106456,-0.06225220,-0.02251633,0
 .00505364,-0.00334642,0.00026977,-0.00069594,0.01000793,0.01352525,-0.
 00317699,-0.07530766,-0.05177707,0.00917356,-0.00094736,0.00019520,0.0
 0027532,-0.00000974,-0.00024672,-0.00053059,-0.00019330,-0.00000648,-0
 .00000624,0.00016894,0.00009609,0.00006968,-0.00004650,-0.00003289,0.0
 0051093,-0.00075042,-0.00000833,-0.00051723,-0.00002936,0.00023411,0.0
 0033909,-0.00012404,-0.00009058,-0.00042445,-0.00007563,-0.00011929,0.
 00001865,-0.00003666,0.00013547,-0.00002634,-0.00020978,-0.00120950,0.
 00031027,0.38524786,-0.06311033,-0.02333666,0.00551541,-0.03690628,-0.
 16717277,0.03664465,-0.00300683,0.00211216,0.00099468,-0.00821818,-0.0
 1091644,0.00193738,0.00894856,-0.02103018,0.01179433,0.00035410,-0.000
 03365,-0.00001500,0.00001268,0.00035289,0.00017611,0.00026323,-0.00001
 134,-0.00010776,-0.00016011,-0.00008776,-0.00007332,-0.00010743,0.0002
 0353,-0.00024632,0.00024541,-0.00004034,0.00004763,-0.00001285,0.00000
 269,-0.00011398,-0.00002387,0.00012789,0.00016824,0.00000950,0.0000477
 2,-0.00002181,0.00000762,-0.00004555,0.00000347,0.01984160,0.00140014,
 0.00067624,0.03123501,0.27643398,0.01596155,0.00920904,0.00743777,0.00
 928064,0.03754700,-0.04602547,0.00027312,0.00119813,0.00578709,0.00318
 331,0.00330014,-0.00325890,-0.00850129,0.00763184,0.01421991,-0.000115
 19,0.00003796,-0.00003570,0.00012891,-0.00015957,-0.00000964,-0.000073
 55,0.00005106,0.00008857,0.00002634,-0.00001904,-0.00004590,-0.0000881
 3,0.00000460,0.00014308,-0.00018043,-0.00000905,-0.00006271,0.00003183
 ,0.00001926,0.00010174,-0.00002779,-0.00006755,0.00004210,0.00000329,-
 0.00002512,-0.00002202,0.00000248,0.00001353,-0.00002009,-0.00579873,-
 0.00057987,-0.00063168,0.01275328,-0.06614111,0.06575943,0.01180612,-0
 .02483226,0.00722726,-0.01029505,0.04174756,-0.01338899,-0.00455336,0.
 00387192,-0.00156706,-0.00095958,-0.00270010,0.00060011,-0.20354097,-0
 .12559446,0.02761771,0.00139058,-0.00025210,-0.00018479,-0.00035926,0.
 00088028,0.00084083,0.00055967,0.00007640,0.00005758,-0.00037090,-0.00
 028651,-0.00021679,-0.00036797,0.00033765,-0.00104159,0.00097370,0.000
 02895,0.00039747,0.00013116,-0.00050499,-0.00086919,0.00005021,0.00018
 714,0.00102174,0.00009212,0.00023206,-0.00005828,0.00001827,-0.0002435
 6,0.00003471,-0.09049985,0.08676100,-0.02910497,-0.22932371,0.05477763
 ,-0.02825739,0.54903456,0.01470224,-0.08518356,0.02863847,0.00644322,-
 0.03935598,0.01397387,0.00348716,-0.00104252,0.00135669,-0.00589826,-0
 .00442430,0.00146906,-0.12243371,-0.25326231,0.04903749,0.00137202,-0.
 00033778,-0.00037505,-0.00017396,0.00050245,0.00082615,0.00071386,-0.0
 0009777,-0.00034247,-0.00029606,-0.00020148,-0.00021697,0.00018419,-0.
 00000144,-0.00116668,0.00140002,-0.00006713,0.00087929,0.00029606,-0.0
 0055704,-0.00083096,0.00067384,0.00019553,0.00085158,0.00018929,0.0003
 2732,-0.00003959,0.00009742,-0.00034428,0.00007602,0.09517761,-0.30105
 524,0.08534610,0.03774596,-0.05591229,0.00662016,-0.02306503,0.7387397
 0,-0.00413322,0.02591582,0.00181358,-0.00312974,0.01643148,0.00264371,
 -0.00146777,0.00138843,0.00231254,0.00153421,0.00168191,0.00148747,0.0
 2644573,0.04885971,-0.07185874,-0.00072980,0.00010938,0.00028289,-0.00
 035106,-0.00010414,-0.00058070,0.00015221,-0.00018647,-0.00002195,0.00
 006736,0.00010606,-0.00010229,0.00036873,-0.00003905,0.00004809,-0.000
 05164,0.00002105,-0.00004023,-0.00011220,0.00015886,0.00001788,-0.0001
 4536,-0.00005098,-0.00026430,-0.00007445,-0.00008292,0.00004379,-0.000
 04215,0.00009845,0.00000061,-0.03158774,0.08468261,-0.05518690,-0.0233
 1089,0.00754549,-0.04602979,0.03499041,-0.18500535,0.16534052,-0.01280
 679,0.01001104,-0.00353503,0.00423030,0.00128380,-0.00015722,0.0007197
 0,0.00048010,-0.00019533,-0.00022618,0.00067997,-0.00027561,-0.1574027
 5,0.00565940,-0.01283931,0.00336610,0.00254926,0.00289321,-0.01263648,
 -0.00460063,-0.00620915,0.00052663,-0.00094796,-0.00117131,-0.00148218
 ,0.00027333,0.00009471,-0.01649770,-0.00527479,0.00739461,0.00170225,0
 .00045092,0.00260573,-0.00746719,0.00540306,-0.00472478,-0.00432098,0.
 00577870,0.00211656,0.00001385,0.00144612,-0.00015602,0.00019797,-0.00
 086078,0.00030476,0.00079431,-0.00099466,0.00027776,0.00559171,-0.0041
 4947,0.00139775,-0.02378573,-0.01061587,0.00157738,0.21948314,0.011344
 73,0.00323592,-0.00040605,0.00302553,-0.00364085,0.00123903,0.00074922
 ,-0.00209637,0.00090093,0.00013604,0.00018621,0.00014910,0.00431096,-0
 .02266934,0.00223589,0.00241050,-0.00831915,-0.00867345,-0.00571675,-0
 .00532604,-0.00119673,-0.00239052,0.00006887,0.00098236,0.00234836,0.0
 0022299,0.00085113,-0.00569404,-0.00527551,0.00251136,0.00035052,-0.00
 294166,0.00631129,0.00508460,-0.00934843,0.00773775,0.00559192,-0.0196
 3479,-0.00314623,0.00092425,0.00098459,-0.00018624,0.00037197,-0.00132
 005,0.00014943,-0.00155166,-0.00120150,0.00007939,-0.00330251,-0.00209
 401,0.00136860,-0.01142159,0.00207814,-0.00153032,-0.00657153,0.077090
 97,-0.00428036,-0.00094244,-0.00164190,-0.00064741,0.00143346,0.000015
 60,-0.00026731,0.00082721,0.00043646,-0.00009271,0.00016905,0.00066329
 ,-0.01290998,0.00221975,-0.01918215,0.00318192,-0.00874894,-0.01527630
 ,-0.00773843,-0.00123326,-0.00440247,-0.00219351,0.00063824,-0.0003944
 9,0.00170208,0.00088555,0.00019029,0.00694070,0.00298705,-0.00399627,0
 .00455690,0.00638784,-0.02224927,-0.00583898,0.00947142,-0.00890009,0.
 00334330,-0.00495350,0.00113898,-0.00006170,-0.00019808,-0.00097673,0.
 00007831,0.00010899,-0.00081774,0.00047587,0.00020706,-0.00044421,0.00
 124881,0.00121568,0.00256220,0.00190122,-0.00109782,0.00009383,0.01060
 128,-0.00937726,0.07318097||-0.00001223,0.00000321,-0.00001199,0.00001
 297,0.00000255,-0.00000846,-0.00000036,-0.00000392,-0.00000536,-0.0000
 0417,-0.00000988,-0.00000854,0.00000899,-0.00000524,0.00001328,-0.0000
 0481,0.00000353,0.00000505,-0.00001144,0.00001079,-0.00000833,0.000014
 83,-0.00001262,0.00000379,-0.00000539,0.00000650,0.00001540,0.00000452
 ,0.00002689,0.00001640,0.00001740,-0.00000904,-0.00001161,0.00000138,0
 .00000234,0.00000513,0.00001158,0.00000219,-0.00000340,-0.00000810,-0.
 00000019,0.00000038,0.00001186,0.00000966,-0.00000159,0.00000167,-0.00
 000086,0.00000239,-0.00000418,-0.00001618,-0.00000061,-0.00000361,0.00
 000922,-0.00000359,-0.00003093,-0.00001895,0.00000167|||@


 IN THE LONG RUN, DIGGING FOR TRUTH HAS ALWAYS PROVED NOT ONLY 
 MORE INTERESTING BUT MORE PROFITABLE THAN DIGGING FOR GOLD.

                             -- GEORGE R. HARRISON
 Job cpu time:  0 days  0 hours 30 minutes 48.0 seconds.
 File lengths (MBytes):  RWF=     89 Int=      0 D2E=      0 Chk=      5 Scr=      1
 Normal termination of Gaussian 09 at Thu Sep 30 23:00:55 2021.
