 Entering Link 1 = C:\G09W\l1.exe PID=     12180.
  
 Copyright (c) 1988,1990,1992,1993,1995,1998,2003,2009, Gaussian, Inc.
                  All Rights Reserved.
  
 This is part of the Gaussian(R) 09 program.  It is based on
 the Gaussian(R) 03 system (copyright 2003, Gaussian, Inc.),
 the Gaussian(R) 98 system (copyright 1998, Gaussian, Inc.),
 the Gaussian(R) 94 system (copyright 1995, Gaussian, Inc.),
 the Gaussian 92(TM) system (copyright 1992, Gaussian, Inc.),
 the Gaussian 90(TM) system (copyright 1990, Gaussian, Inc.),
 the Gaussian 88(TM) system (copyright 1988, Gaussian, Inc.),
 the Gaussian 86(TM) system (copyright 1986, Carnegie Mellon
 University), and the Gaussian 82(TM) system (copyright 1983,
 Carnegie Mellon University). Gaussian is a federally registered
 trademark of Gaussian, Inc.
  
 This software contains proprietary and confidential information,
 including trade secrets, belonging to Gaussian, Inc.
  
 This software is provided under written license and may be
 used, copied, transmitted, or stored only in accord with that
 written license.
  
 The following legend is applicable only to US Government
 contracts under FAR:
  
                    RESTRICTED RIGHTS LEGEND
  
 Use, reproduction and disclosure by the US Government is
 subject to restrictions as set forth in subparagraphs (a)
 and (c) of the Commercial Computer Software - Restricted
 Rights clause in FAR 52.227-19.
  
 Gaussian, Inc.
 340 Quinnipiac St., Bldg. 40, Wallingford CT 06492
  
  
 ---------------------------------------------------------------
 Warning -- This program may not be used in any manner that
 competes with the business of Gaussian, Inc. or will provide
 assistance to any competitor of Gaussian, Inc.  The licensee
 of this program is prohibited from giving any competitor of
 Gaussian, Inc. access to this program.  By using this program,
 the user acknowledges that Gaussian, Inc. is engaged in the
 business of creating and licensing software in the field of
 computational chemistry and represents and warrants to the
 licensee that it is not a competitor of Gaussian, Inc. and that
 it will not use this program in any manner prohibited above.
 ---------------------------------------------------------------
  

 Cite this work as:
 Gaussian 09, Revision A.02,
 M. J. Frisch, G. W. Trucks, H. B. Schlegel, G. E. Scuseria, 
 M. A. Robb, J. R. Cheeseman, G. Scalmani, V. Barone, B. Mennucci, 
 G. A. Petersson, H. Nakatsuji, M. Caricato, X. Li, H. P. Hratchian, 
 A. F. Izmaylov, J. Bloino, G. Zheng, J. L. Sonnenberg, M. Hada, 
 M. Ehara, K. Toyota, R. Fukuda, J. Hasegawa, M. Ishida, T. Nakajima, 
 Y. Honda, O. Kitao, H. Nakai, T. Vreven, J. A. Montgomery, Jr., 
 J. E. Peralta, F. Ogliaro, M. Bearpark, J. J. Heyd, E. Brothers, 
 K. N. Kudin, V. N. Staroverov, R. Kobayashi, J. Normand, 
 K. Raghavachari, A. Rendell, J. C. Burant, S. S. Iyengar, J. Tomasi, 
 M. Cossi, N. Rega, J. M. Millam, M. Klene, J. E. Knox, J. B. Cross, 
 V. Bakken, C. Adamo, J. Jaramillo, R. Gomperts, R. E. Stratmann, 
 O. Yazyev, A. J. Austin, R. Cammi, C. Pomelli, J. W. Ochterski, 
 R. L. Martin, K. Morokuma, V. G. Zakrzewski, G. A. Voth, 
 P. Salvador, J. J. Dannenberg, S. Dapprich, A. D. Daniels, 
 O. Farkas, J. B. Foresman, J. V. Ortiz, J. Cioslowski, 
 and D. J. Fox, Gaussian, Inc., Wallingford CT, 2009.
 
 ******************************************
 Gaussian 09:  IA32W-G09RevA.02 11-Jun-2009
                01-Oct-2021 
 ******************************************
 %mem=98MW
 ------------------------------
 # opt freq wb97xd/6-311+g(d,p)
 ------------------------------
 1/14=-1,18=20,19=15,26=3,38=1/1,3;
 2/9=110,12=2,17=6,18=5,40=1/2;
 3/5=4,6=6,7=111,11=2,16=1,25=1,30=1,71=1,74=-58/1,2,3;
 4//1;
 5/5=2,38=5/2;
 6/7=2,8=2,9=2,10=2,28=1/1;
 7//1,2,3,16;
 1/14=-1,18=20,19=15/3(2);
 2/9=110/2;
 99//99;
 2/9=110/2;
 3/5=4,6=6,7=111,11=2,16=1,25=1,30=1,71=1,74=-58/1,2,3;
 4/5=5,16=3/1;
 5/5=2,38=5/2;
 7//1,2,3,16;
 1/14=-1,18=20,19=15/3(-5);
 2/9=110/2;
 6/7=2,8=2,9=2,10=2,19=2,28=1/1;
 99/9=1/99;
 ---------------
 Thiazole-Be(2+)
 ---------------
 Symbolic Z-matrix:
 Charge =  2 Multiplicity = 1
 C                    -0.69747   1.15311   0.00006 
 C                     0.64307   1.19262   0.00009 
 H                    -0.35133  -2.15316   0.00004 
 H                    -1.36802   2.00269   0.00009 
 H                     1.2794    2.06834   0.00016 
 N                    -1.20288  -0.16785  -0.00005 
 S                     1.31932  -0.39783  -0.00007 
 C                    -0.19276  -1.08078   0.00005 
 Be                   -2.69153  -0.49186  0. 
 

 GradGradGradGradGradGradGradGradGradGradGradGradGradGradGradGradGradGrad
 Berny optimization.
 Initialization pass.
                           ----------------------------
                           !    Initial Parameters    !
                           ! (Angstroms and Degrees)  !
 --------------------------                            --------------------------
 ! Name  Definition              Value          Derivative Info.                !
 --------------------------------------------------------------------------------
 ! R1    R(1,2)                  1.3411         estimate D2E/DX2                !
 ! R2    R(1,4)                  1.0823         estimate D2E/DX2                !
 ! R3    R(1,6)                  1.4144         estimate D2E/DX2                !
 ! R4    R(2,5)                  1.0825         estimate D2E/DX2                !
 ! R5    R(2,7)                  1.7283         estimate D2E/DX2                !
 ! R6    R(3,8)                  1.084          estimate D2E/DX2                !
 ! R7    R(6,8)                  1.3615         estimate D2E/DX2                !
 ! R8    R(6,9)                  1.5235         estimate D2E/DX2                !
 ! R9    R(7,8)                  1.6592         estimate D2E/DX2                !
 ! A1    A(2,1,4)              126.595          estimate D2E/DX2                !
 ! A2    A(2,1,6)              112.6257         estimate D2E/DX2                !
 ! A3    A(4,1,6)              120.7792         estimate D2E/DX2                !
 ! A4    A(1,2,5)              127.6917         estimate D2E/DX2                !
 ! A5    A(1,2,7)              111.3467         estimate D2E/DX2                !
 ! A6    A(5,2,7)              120.9615         estimate D2E/DX2                !
 ! A7    A(1,6,8)              111.1691         estimate D2E/DX2                !
 ! A8    A(1,6,9)              123.2163         estimate D2E/DX2                !
 ! A9    A(8,6,9)              125.6146         estimate D2E/DX2                !
 ! A10   A(2,7,8)               91.272          estimate D2E/DX2                !
 ! A11   A(3,8,6)              123.6953         estimate D2E/DX2                !
 ! A12   A(3,8,7)              122.7183         estimate D2E/DX2                !
 ! A13   A(6,8,7)              113.5865         estimate D2E/DX2                !
 ! D1    D(4,1,2,5)              0.0            estimate D2E/DX2                !
 ! D2    D(4,1,2,7)           -179.9971         estimate D2E/DX2                !
 ! D3    D(6,1,2,5)            179.9995         estimate D2E/DX2                !
 ! D4    D(6,1,2,7)              0.0024         estimate D2E/DX2                !
 ! D5    D(2,1,6,8)              0.0058         estimate D2E/DX2                !
 ! D6    D(2,1,6,9)            179.9954         estimate D2E/DX2                !
 ! D7    D(4,1,6,8)           -179.9947         estimate D2E/DX2                !
 ! D8    D(4,1,6,9)             -0.0051         estimate D2E/DX2                !
 ! D9    D(1,2,7,8)             -0.0077         estimate D2E/DX2                !
 ! D10   D(5,2,7,8)            179.995          estimate D2E/DX2                !
 ! D11   D(1,6,8,3)            179.9973         estimate D2E/DX2                !
 ! D12   D(1,6,8,7)             -0.0118         estimate D2E/DX2                !
 ! D13   D(9,6,8,3)              0.008          estimate D2E/DX2                !
 ! D14   D(9,6,8,7)            179.9988         estimate D2E/DX2                !
 ! D15   D(2,7,8,3)           -179.9978         estimate D2E/DX2                !
 ! D16   D(2,7,8,6)              0.0112         estimate D2E/DX2                !
 --------------------------------------------------------------------------------
 Trust Radius=3.00D-01 FncErr=1.00D-07 GrdErr=1.00D-06
 Number of steps in this run=  48 maximum allowed number of steps= 100.
 GradGradGradGradGradGradGradGradGradGradGradGradGradGradGradGradGradGrad

                          Input orientation:                          
 ---------------------------------------------------------------------
 Center     Atomic      Atomic             Coordinates (Angstroms)
 Number     Number       Type             X           Y           Z
 ---------------------------------------------------------------------
      1          6           0       -0.697466    1.153112    0.000055
      2          6           0        0.643069    1.192624    0.000090
      3          1           0       -0.351328   -2.153159    0.000035
      4          1           0       -1.368024    2.002694    0.000088
      5          1           0        1.279397    2.068344    0.000157
      6          7           0       -1.202883   -0.167854   -0.000046
      7         16           0        1.319323   -0.397826   -0.000068
      8          6           0       -0.192758   -1.080780    0.000045
      9          4           0       -2.691525   -0.491856   -0.000002
 ---------------------------------------------------------------------
                    Distance matrix (angstroms):
                    1          2          3          4          5
     1  C    0.000000
     2  C    1.341117   0.000000
     3  H    3.324340   3.490428   0.000000
     4  H    1.082330   2.168112   4.278409   0.000000
     5  H    2.178448   1.082497   4.525522   2.648235   0.000000
     6  N    1.414354   2.293129   2.160227   2.176821   3.341002
     7  S    2.544179   1.728251   2.423276   3.603378   2.466493
     8  C    2.290197   2.422183   1.084039   3.299858   3.476237
     9  Be   2.584993   3.735906   2.869922   2.823904   4.724706
                    6          7          8          9
     6  N    0.000000
     7  S    2.532669   0.000000
     8  C    1.361538   1.659161   0.000000
     9  Be   1.523493   4.011950   2.567230   0.000000
 Stoichiometry    C3H3BeNS(2+)
 Framework group  C1[X(C3H3BeNS)]
 Deg. of freedom    21
 Full point group                 C1      NOp   1
 Largest Abelian subgroup         C1      NOp   1
 Largest concise Abelian subgroup C1      NOp   1
                         Standard orientation:                         
 ---------------------------------------------------------------------
 Center     Atomic      Atomic             Coordinates (Angstroms)
 Number     Number       Type             X           Y           Z
 ---------------------------------------------------------------------
      1          6           0       -0.697466    1.153112    0.000055
      2          6           0        0.643069    1.192624    0.000090
      3          1           0       -0.351328   -2.153159    0.000035
      4          1           0       -1.368024    2.002694    0.000088
      5          1           0        1.279397    2.068344    0.000157
      6          7           0       -1.202883   -0.167854   -0.000046
      7         16           0        1.319323   -0.397826   -0.000068
      8          6           0       -0.192758   -1.080780    0.000045
      9          4           0       -2.691525   -0.491856   -0.000002
 ---------------------------------------------------------------------
 Rotational constants (GHZ):      7.4719526      3.2385207      2.2592908
 Standard basis: 6-311+G(d,p) (5D, 7F)
 There are   158 symmetry adapted basis functions of A   symmetry.
 Integral buffers will be    262144 words long.
 Raffenetti 2 integral format.
 Two-electron integral symmetry is turned on.
   158 basis functions,   254 primitive gaussians,   164 cartesian basis functions
    23 alpha electrons       23 beta electrons
       nuclear repulsion energy       238.5618526134 Hartrees.
 NAtoms=    9 NActive=    9 NUniq=    9 SFac= 7.50D-01 NAtFMM=   80 NAOKFM=F Big=F
 Nuclear repulsion after empirical dispersion term =      238.5593056134 Hartrees.
 One-electron integrals computed using PRISM.
 NBasis=   158 RedAO= T  NBF=   158
 NBsUse=   158 1.00D-06 NBFU=   158
 Harris functional with IExCor= 4639 diagonalized for initial guess.
 ExpMin= 2.07D-02 ExpMax= 9.34D+04 ExpMxC= 3.17D+03 IAcc=3 IRadAn=         0 AccDes= 0.00D+00
 HarFok:  IExCor= 4639 AccDes= 0.00D+00 IRadAn=         0 IDoV= 1
 ScaDFX=  1.000000  1.000000  1.000000  1.000000
 FoFCou: FMM=F IPFlag=           0 FMFlag=      100000 FMFlg1=           0
         NFxFlg=           0 DoJE=T BraDBF=F KetDBF=T FulRan=T
         Omega=  0.000000  0.000000  1.000000  0.000000  0.000000 ICntrl=     500 IOpCl=  0
         NMat0=    1 NMatS0=    1 NMatT0=    0 NMatD0=    1 NMtDS0=    0 NMtDT0=    0
         I1Cent=           4 NGrid=           0.
 Petite list used in FoFCou.
 Initial guess orbital symmetries:
       Occupied  (A) (A) (A) (A) (A) (A) (A) (A) (A) (A) (A) (A)
                 (A) (A) (A) (A) (A) (A) (A) (A) (A) (A) (A)
       Virtual   (A) (A) (A) (A) (A) (A) (A) (A) (A) (A) (A) (A)
                 (A) (A) (A) (A) (A) (A) (A) (A) (A) (A) (A) (A)
                 (A) (A) (A) (A) (A) (A) (A) (A) (A) (A) (A) (A)
                 (A) (A) (A) (A) (A) (A) (A) (A) (A) (A) (A) (A)
                 (A) (A) (A) (A) (A) (A) (A) (A) (A) (A) (A) (A)
                 (A) (A) (A) (A) (A) (A) (A) (A) (A) (A) (A) (A)
                 (A) (A) (A) (A) (A) (A) (A) (A) (A) (A) (A) (A)
                 (A) (A) (A) (A) (A) (A) (A) (A) (A) (A) (A) (A)
                 (A) (A) (A) (A) (A) (A) (A) (A) (A) (A) (A) (A)
                 (A) (A) (A) (A) (A) (A) (A) (A) (A) (A) (A) (A)
                 (A) (A) (A) (A) (A) (A) (A) (A) (A) (A) (A) (A)
                 (A) (A) (A)
 The electronic state of the initial guess is 1-A.
 Requested convergence on RMS density matrix=1.00D-08 within 128 cycles.
 Requested convergence on MAX density matrix=1.00D-06.
 Requested convergence on             energy=1.00D-06.
 No special actions if energy rises.
 FoFJK:  IHMeth= 1 ICntrl=     0 DoSepK=T KAlg= 1 I1Cent= 0 FoldK=F
 FoFJK:  IHMeth= 1 ICntrl=     0 DoSepK=T KAlg= 1 I1Cent= 0 FoldK=F
 FoFJK:  IHMeth= 1 ICntrl=     0 DoSepK=T KAlg= 1 I1Cent= 0 FoldK=F
 FoFJK:  IHMeth= 1 ICntrl=     0 DoSepK=T KAlg= 1 I1Cent= 0 FoldK=F
 FoFJK:  IHMeth= 1 ICntrl=     0 DoSepK=T KAlg= 1 I1Cent= 0 FoldK=F
 FoFJK:  IHMeth= 1 ICntrl=     0 DoSepK=T KAlg= 1 I1Cent= 0 FoldK=F
 FoFJK:  IHMeth= 1 ICntrl=     0 DoSepK=T KAlg= 1 I1Cent= 0 FoldK=F
 FoFJK:  IHMeth= 1 ICntrl=     0 DoSepK=T KAlg= 1 I1Cent= 0 FoldK=F
 FoFJK:  IHMeth= 1 ICntrl=     0 DoSepK=T KAlg= 1 I1Cent= 0 FoldK=F
 FoFJK:  IHMeth= 1 ICntrl=     0 DoSepK=T KAlg= 1 I1Cent= 0 FoldK=F
 FoFJK:  IHMeth= 1 ICntrl=     0 DoSepK=T KAlg= 1 I1Cent= 0 FoldK=F
 FoFJK:  IHMeth= 1 ICntrl=     0 DoSepK=T KAlg= 1 I1Cent= 0 FoldK=F
 FoFJK:  IHMeth= 1 ICntrl=     0 DoSepK=T KAlg= 1 I1Cent= 0 FoldK=F
 FoFJK:  IHMeth= 1 ICntrl=     0 DoSepK=T KAlg= 1 I1Cent= 0 FoldK=F
 SCF Done:  E(RwB97XD) =  -583.037203648     A.U. after   14 cycles
             Convg  =    0.4325D-08             -V/T =  2.0020

 **********************************************************************

            Population analysis using the SCF density.

 **********************************************************************

 Orbital symmetries:
       Occupied  (A) (A) (A) (A) (A) (A) (A) (A) (A) (A) (A) (A)
                 (A) (A) (A) (A) (A) (A) (A) (A) (A) (A) (A)
       Virtual   (A) (A) (A) (A) (A) (A) (A) (A) (A) (A) (A) (A)
                 (A) (A) (A) (A) (A) (A) (A) (A) (A) (A) (A) (A)
                 (A) (A) (A) (A) (A) (A) (A) (A) (A) (A) (A) (A)
                 (A) (A) (A) (A) (A) (A) (A) (A) (A) (A) (A) (A)
                 (A) (A) (A) (A) (A) (A) (A) (A) (A) (A) (A) (A)
                 (A) (A) (A) (A) (A) (A) (A) (A) (A) (A) (A) (A)
                 (A) (A) (A) (A) (A) (A) (A) (A) (A) (A) (A) (A)
                 (A) (A) (A) (A) (A) (A) (A) (A) (A) (A) (A) (A)
                 (A) (A) (A) (A) (A) (A) (A) (A) (A) (A) (A) (A)
                 (A) (A) (A) (A) (A) (A) (A) (A) (A) (A) (A) (A)
                 (A) (A) (A) (A) (A) (A) (A) (A) (A) (A) (A) (A)
                 (A) (A) (A)
 The electronic state is 1-A.
 Alpha  occ. eigenvalues --  -89.43714 -14.88907 -10.75231 -10.70092 -10.67677
 Alpha  occ. eigenvalues --   -8.47609  -6.42379  -6.41937  -6.41875  -4.75523
 Alpha  occ. eigenvalues --   -1.48044  -1.29751  -1.23565  -1.07920  -1.05367
 Alpha  occ. eigenvalues --   -1.02389  -0.90717  -0.90424  -0.88384  -0.85920
 Alpha  occ. eigenvalues --   -0.80688  -0.75642  -0.70611
 Alpha virt. eigenvalues --   -0.45393  -0.37731  -0.35713  -0.30763  -0.26518
 Alpha virt. eigenvalues --   -0.24511  -0.22281  -0.19052  -0.18450  -0.17610
 Alpha virt. eigenvalues --   -0.16684  -0.16462  -0.16109  -0.14013  -0.13675
 Alpha virt. eigenvalues --   -0.13015  -0.12285  -0.11286  -0.09572  -0.09103
 Alpha virt. eigenvalues --   -0.08350  -0.07756  -0.07099  -0.06170  -0.05599
 Alpha virt. eigenvalues --   -0.05466  -0.04859  -0.03933  -0.03328  -0.02854
 Alpha virt. eigenvalues --   -0.01037  -0.00003   0.00785   0.01092   0.02298
 Alpha virt. eigenvalues --    0.03099   0.03737   0.05614   0.06476   0.09926
 Alpha virt. eigenvalues --    0.11708   0.12544   0.14547   0.16435   0.17985
 Alpha virt. eigenvalues --    0.19262   0.19701   0.25072   0.26822   0.27676
 Alpha virt. eigenvalues --    0.29586   0.31429   0.31515   0.36284   0.36626
 Alpha virt. eigenvalues --    0.42413   0.42959   0.44830   0.45625   0.46447
 Alpha virt. eigenvalues --    0.46879   0.50586   0.53696   0.55758   0.56408
 Alpha virt. eigenvalues --    0.58922   0.59586   0.61284   0.63936   0.66319
 Alpha virt. eigenvalues --    0.68494   0.72176   0.74269   0.77926   0.78128
 Alpha virt. eigenvalues --    0.79157   0.84788   0.90459   0.94333   0.99373
 Alpha virt. eigenvalues --    1.04346   1.08656   1.21886   1.27003   1.29778
 Alpha virt. eigenvalues --    1.33715   1.34444   1.40013   1.41661   1.45911
 Alpha virt. eigenvalues --    1.46966   1.52752   1.53138   1.56821   1.64203
 Alpha virt. eigenvalues --    1.67875   1.70557   1.79466   1.82860   1.86238
 Alpha virt. eigenvalues --    1.91492   2.05352   2.07506   2.09918   2.19396
 Alpha virt. eigenvalues --    2.25282   2.32282   2.39087   2.45946   2.48890
 Alpha virt. eigenvalues --    2.49044   2.49611   2.52257   2.52393   2.64809
 Alpha virt. eigenvalues --    2.85210   2.95345   3.11124   3.25220   3.28458
 Alpha virt. eigenvalues --    3.50055   3.57442   3.79552   4.10427   4.61291
 Alpha virt. eigenvalues --    7.66705   7.81197  17.02914  17.18529  17.24513
 Alpha virt. eigenvalues --   23.43626  23.51773  23.96852  35.22511 188.94655
          Condensed to atoms (all electrons):
              1          2          3          4          5          6
     1  C    5.175116   0.479410   0.010928   0.372985  -0.012048   0.279845
     2  C    0.479410   5.263441  -0.005270   0.033730   0.368698  -0.136816
     3  H    0.010928  -0.005270   0.345191   0.000067   0.000004  -0.021929
     4  H    0.372985   0.033730   0.000067   0.382539  -0.001810  -0.052315
     5  H   -0.012048   0.368698   0.000004  -0.001810   0.326833   0.010330
     6  N    0.279845  -0.136816  -0.021929  -0.052315   0.010330   6.067513
     7  S    0.232928   0.084252   0.008305  -0.010954   0.006964  -0.097471
     8  C   -0.235252   0.162314   0.367015   0.021713  -0.009821   0.204300
     9  Be   0.007088  -0.116570  -0.001907  -0.002651  -0.000161   0.253224
              7          8          9
     1  C    0.232928  -0.235252   0.007088
     2  C    0.084252   0.162314  -0.116570
     3  H    0.008305   0.367015  -0.001907
     4  H   -0.010954   0.021713  -0.002651
     5  H    0.006964  -0.009821  -0.000161
     6  N   -0.097471   0.204300   0.253224
     7  S   15.223145   0.085064   0.030970
     8  C    0.085064   5.798187  -0.176906
     9  Be   0.030970  -0.176906   3.141533
 Mulliken atomic charges:
              1
     1  C   -0.310999
     2  C   -0.133190
     3  H    0.297597
     4  H    0.256696
     5  H    0.311011
     6  N    0.493319
     7  S    0.436799
     8  C   -0.216613
     9  Be   0.865381
 Sum of Mulliken atomic charges =   2.00000
 Mulliken charges with hydrogens summed into heavy atoms:
              1
     1  C   -0.054303
     2  C    0.177821
     6  N    0.493319
     7  S    0.436799
     8  C    0.080984
     9  Be   0.865381
 Sum of Mulliken charges with hydrogens summed into heavy atoms =   2.00000
 Electronic spatial extent (au):  <R**2>=            439.3726
 Charge=              2.0000 electrons
 Dipole moment (field-independent basis, Debye):
    X=            -14.0217    Y=             -2.4926    Z=              0.0001  Tot=             14.2415
 Quadrupole moment (field-independent basis, Debye-Ang):
   XX=             24.2408   YY=            -19.6632   ZZ=            -36.6818
   XY=              9.7643   XZ=             -0.0003   YZ=              0.0005
 Traceless Quadrupole moment (field-independent basis, Debye-Ang):
   XX=             34.9422   YY=             -8.9618   ZZ=            -25.9804
   XY=              9.7643   XZ=             -0.0003   YZ=              0.0005
 Octapole moment (field-independent basis, Debye-Ang**2):
  XXX=           -154.7410  YYY=             -0.7407  ZZZ=             -0.0006  XYY=             -8.0716
  XXY=            -23.3765  XXZ=             -0.0004  XZZ=             -2.0337  YZZ=             -2.2396
  YYZ=              0.0013  XYZ=              0.0005
 Hexadecapole moment (field-independent basis, Debye-Ang**3):
 XXXX=            178.7991 YYYY=           -141.2972 ZZZZ=            -38.5987 XXXY=             87.9521
 XXXZ=              0.0009 YYYX=             14.3248 YYYZ=             -0.0008 ZZZX=              0.0015
 ZZZY=             -0.0039 XXYY=            -48.0438 XXZZ=            -55.6233 YYZZ=            -44.3973
 XXYZ=             -0.0001 YYXZ=              0.0009 ZZXY=              2.0890
 N-N= 2.385593056134D+02 E-N=-1.835677882470D+03  KE= 5.818721010132D+02
 Calling FoFJK, ICntrl=      2127 FMM=F ISym2X=0 I1Cent= 0 IOpClX= 0 NMat=1 NMatS=1 NMatT=0.
 FoFJK:  IHMeth= 1 ICntrl=  2127 DoSepK=T KAlg= 1 I1Cent= 0 FoldK=F
 ***** Axes restored to original set *****
 -------------------------------------------------------------------
 Center     Atomic                   Forces (Hartrees/Bohr)
 Number     Number              X              Y              Z
 -------------------------------------------------------------------
      1        6          -0.003560513   -0.002461135   -0.000003364
      2        6           0.003819679   -0.000243762   -0.000007216
      3        1          -0.000117145   -0.000356715   -0.000000982
      4        1          -0.000160876    0.000325908   -0.000000304
      5        1           0.000008114    0.000138305   -0.000001227
      6        7           0.006522537    0.002262408    0.000019402
      7       16           0.001417632    0.001325175    0.000014895
      8        6          -0.001816992    0.000319633   -0.000020408
      9        4          -0.006112435   -0.001309817   -0.000000797
 -------------------------------------------------------------------
 Cartesian Forces:  Max     0.006522537 RMS     0.002173800

 GradGradGradGradGradGradGradGradGradGradGradGradGradGradGradGradGradGrad
 Berny optimization.
 Internal  Forces:  Max     0.006252571 RMS     0.001244573
 Search for a local minimum.
 Step number   1 out of a maximum of   48
 All quantities printed in internal units (Hartrees-Bohrs-Radians)
 Mixed Optimization -- RFO/linear search
 Second derivative matrix not updated -- first step.
     Eigenvalues ---    0.01796   0.01877   0.02112   0.02211   0.02293
     Eigenvalues ---    0.02494   0.16000   0.16000   0.16000   0.22476
     Eigenvalues ---    0.23492   0.25000   0.30033   0.31873   0.35511
     Eigenvalues ---    0.35694   0.35714   0.39248   0.42306   0.49725
     Eigenvalues ---    0.551901000.000001000.000001000.000001000.00000
     Eigenvalues --- 1000.000001000.000001000.000001000.000001000.00000
     Eigenvalues --- 1000.000001000.000001000.000001000.000001000.00000
     Eigenvalues --- 1000.000001000.000001000.00000
 RFO step:  Lambda=-1.71913568D-04 EMin= 1.79575027D-02
 Linear search not attempted -- first point.
 Iteration  1 RMS(Cart)=  0.00377560 RMS(Int)=  0.00000130
 Iteration  2 RMS(Cart)=  0.00000108 RMS(Int)=  0.00000057
 Iteration  3 RMS(Cart)=  0.00000000 RMS(Int)=  0.00000057
 Variable       Old X    -DE/DX   Delta X   Delta X   Delta X     New X
                                 (Linear)    (Quad)   (Total)
    R1        2.53434   0.00337   0.00000   0.00608   0.00609   2.54043
    R2        2.04531   0.00035   0.00000   0.00099   0.00099   2.04630
    R3        2.67274  -0.00154   0.00000  -0.00364  -0.00364   2.66910
    R4        2.04562   0.00012   0.00000   0.00032   0.00032   2.04594
    R5        3.26592  -0.00087   0.00000  -0.00232  -0.00232   3.26360
    R6        2.04854   0.00037   0.00000   0.00105   0.00105   2.04959
    R7        2.57293  -0.00040   0.00000  -0.00100  -0.00100   2.57193
    R8        2.87899   0.00625   0.00000   0.02081   0.02081   2.89979
    R9        3.13536   0.00198   0.00000   0.00464   0.00464   3.14000
    A1        2.20950  -0.00028   0.00000  -0.00152  -0.00152   2.20798
    A2        1.96569   0.00037   0.00000   0.00190   0.00190   1.96759
    A3        2.10800  -0.00010   0.00000  -0.00038  -0.00038   2.10761
    A4        2.22864   0.00018   0.00000   0.00029   0.00029   2.22893
    A5        1.94337  -0.00048   0.00000  -0.00133  -0.00133   1.94204
    A6        2.11118   0.00030   0.00000   0.00104   0.00104   2.11222
    A7        1.94027  -0.00010   0.00000  -0.00108  -0.00108   1.93918
    A8        2.15053   0.00000   0.00000   0.00034   0.00034   2.15087
    A9        2.19239   0.00010   0.00000   0.00075   0.00075   2.19314
   A10        1.59300  -0.00024   0.00000  -0.00063  -0.00063   1.59236
   A11        2.15889  -0.00030   0.00000  -0.00108  -0.00108   2.15781
   A12        2.14184  -0.00014   0.00000  -0.00007  -0.00007   2.14177
   A13        1.98246   0.00044   0.00000   0.00115   0.00115   1.98361
    D1        0.00000   0.00000   0.00000   0.00003   0.00003   0.00003
    D2       -3.14154   0.00000   0.00000  -0.00010  -0.00010   3.14154
    D3        3.14158   0.00000   0.00000   0.00000   0.00000   3.14159
    D4        0.00004   0.00000   0.00000  -0.00012  -0.00012  -0.00008
    D5        0.00010   0.00000   0.00000  -0.00023  -0.00023  -0.00013
    D6        3.14151   0.00000   0.00000   0.00008   0.00008  -3.14159
    D7       -3.14150   0.00000   0.00000  -0.00025  -0.00025   3.14143
    D8       -0.00009   0.00000   0.00000   0.00006   0.00006  -0.00003
    D9       -0.00013   0.00001   0.00000   0.00034   0.00034   0.00021
   D10        3.14151   0.00000   0.00000   0.00023   0.00023  -3.14145
   D11        3.14155   0.00000   0.00000   0.00014   0.00014  -3.14150
   D12       -0.00021   0.00001   0.00000   0.00050   0.00050   0.00030
   D13        0.00014   0.00000   0.00000  -0.00019  -0.00019  -0.00005
   D14        3.14157   0.00000   0.00000   0.00018   0.00018  -3.14144
   D15       -3.14155   0.00000   0.00000  -0.00012  -0.00012   3.14151
   D16        0.00020  -0.00001   0.00000  -0.00048  -0.00049  -0.00029
         Item               Value     Threshold  Converged?
 Maximum Force            0.006253     0.000450     NO 
 RMS     Force            0.001245     0.000300     NO 
 Maximum Displacement     0.019595     0.001800     NO 
 RMS     Displacement     0.003776     0.001200     NO 
 Predicted change in Energy=-8.600078D-05
 GradGradGradGradGradGradGradGradGradGradGradGradGradGradGradGradGradGrad

                          Input orientation:                          
 ---------------------------------------------------------------------
 Center     Atomic      Atomic             Coordinates (Angstroms)
 Number     Number       Type             X           Y           Z
 ---------------------------------------------------------------------
      1          6           0       -0.697232    1.151301    0.000065
      2          6           0        0.646460    1.192938    0.000065
      3          1           0       -0.351173   -2.152406   -0.000164
      4          1           0       -1.368109    2.001298    0.000024
      5          1           0        1.281819    2.069572    0.000047
      6          7           0       -1.202476   -0.167671    0.000085
      7         16           0        1.322519   -0.396260    0.000216
      8          6           0       -0.192109   -1.079539   -0.000068
      9          4           0       -2.701894   -0.493933    0.000085
 ---------------------------------------------------------------------
                    Distance matrix (angstroms):
                    1          2          3          4          5
     1  C    0.000000
     2  C    1.344337   0.000000
     3  H    3.321782   3.490931   0.000000
     4  H    1.082853   2.170700   4.276379   0.000000
     5  H    2.181711   1.082667   4.526783   2.650808   0.000000
     6  N    1.412430   2.295609   2.159604   2.175284   3.343198
     7  S    2.544473   1.727023   2.425962   3.603855   2.466168
     8  C    2.287312   2.422262   1.084594   3.297656   3.476977
     9  Be   2.593350   3.749268   2.876877   2.829339   4.737249
                    6          7          8          9
     6  N    0.000000
     7  S    2.535321   0.000000
     8  C    1.361009   1.661617   0.000000
     9  Be   1.534504   4.025598   2.577199   0.000000
 Stoichiometry    C3H3BeNS(2+)
 Framework group  C1[X(C3H3BeNS)]
 Deg. of freedom    21
 Full point group                 C1      NOp   1
 Largest Abelian subgroup         C1      NOp   1
 Largest concise Abelian subgroup C1      NOp   1
                         Standard orientation:                         
 ---------------------------------------------------------------------
 Center     Atomic      Atomic             Coordinates (Angstroms)
 Number     Number       Type             X           Y           Z
 ---------------------------------------------------------------------
      1          6           0        0.695228    1.152670    0.000033
      2          6           0       -0.648564    1.190980    0.000033
      3          1           0        0.357348   -2.151883    0.000261
      4          1           0        1.363999    2.004325    0.000073
      5          1           0       -1.286091    2.066039    0.000050
      6          7           0        1.203735   -0.165047    0.000013
      7         16           0       -1.320686   -0.399887   -0.000119
      8          6           0        0.195629   -1.079414    0.000166
      9          4           0        2.703956   -0.487597    0.000012
 ---------------------------------------------------------------------
 Rotational constants (GHZ):      7.4830830      3.2216228      2.2520629
 Standard basis: 6-311+G(d,p) (5D, 7F)
 There are   158 symmetry adapted basis functions of A   symmetry.
 Integral buffers will be    262144 words long.
 Raffenetti 2 integral format.
 Two-electron integral symmetry is turned on.
   158 basis functions,   254 primitive gaussians,   164 cartesian basis functions
    23 alpha electrons       23 beta electrons
       nuclear repulsion energy       238.3451513026 Hartrees.
 NAtoms=    9 NActive=    9 NUniq=    9 SFac= 7.50D-01 NAtFMM=   80 NAOKFM=F Big=F
 Nuclear repulsion after empirical dispersion term =      238.3426049731 Hartrees.
 One-electron integrals computed using PRISM.
 NBasis=   158 RedAO= T  NBF=   158
 NBsUse=   158 1.00D-06 NBFU=   158
 Initial guess read from the read-write file.
 B after Tr=     0.000000    0.000000    0.000000
         Rot=    1.000000    0.000000    0.000000    0.000000 Ang=   0.00 deg.
 Initial guess orbital symmetries:
       Occupied  (A) (A) (A) (A) (A) (A) (A) (A) (A) (A) (A) (A)
                 (A) (A) (A) (A) (A) (A) (A) (A) (A) (A) (A)
       Virtual   (A) (A) (A) (A) (A) (A) (A) (A) (A) (A) (A) (A)
                 (A) (A) (A) (A) (A) (A) (A) (A) (A) (A) (A) (A)
                 (A) (A) (A) (A) (A) (A) (A) (A) (A) (A) (A) (A)
                 (A) (A) (A) (A) (A) (A) (A) (A) (A) (A) (A) (A)
                 (A) (A) (A) (A) (A) (A) (A) (A) (A) (A) (A) (A)
                 (A) (A) (A) (A) (A) (A) (A) (A) (A) (A) (A) (A)
                 (A) (A) (A) (A) (A) (A) (A) (A) (A) (A) (A) (A)
                 (A) (A) (A) (A) (A) (A) (A) (A) (A) (A) (A) (A)
                 (A) (A) (A) (A) (A) (A) (A) (A) (A) (A) (A) (A)
                 (A) (A) (A) (A) (A) (A) (A) (A) (A) (A) (A) (A)
                 (A) (A) (A) (A) (A) (A) (A) (A) (A) (A) (A) (A)
                 (A) (A) (A)
 Requested convergence on RMS density matrix=1.00D-08 within 128 cycles.
 Requested convergence on MAX density matrix=1.00D-06.
 Requested convergence on             energy=1.00D-06.
 No special actions if energy rises.
 FoFJK:  IHMeth= 1 ICntrl=     0 DoSepK=T KAlg= 1 I1Cent= 0 FoldK=F
 FoFJK:  IHMeth= 1 ICntrl=     0 DoSepK=T KAlg= 1 I1Cent= 0 FoldK=F
 FoFJK:  IHMeth= 1 ICntrl=     0 DoSepK=T KAlg= 1 I1Cent= 0 FoldK=F
 FoFJK:  IHMeth= 1 ICntrl=     0 DoSepK=T KAlg= 1 I1Cent= 0 FoldK=F
 FoFJK:  IHMeth= 1 ICntrl=     0 DoSepK=T KAlg= 1 I1Cent= 0 FoldK=F
 FoFJK:  IHMeth= 1 ICntrl=     0 DoSepK=T KAlg= 1 I1Cent= 0 FoldK=F
 FoFJK:  IHMeth= 1 ICntrl=     0 DoSepK=T KAlg= 1 I1Cent= 0 FoldK=F
 FoFJK:  IHMeth= 1 ICntrl=     0 DoSepK=T KAlg= 1 I1Cent= 0 FoldK=F
 FoFJK:  IHMeth= 1 ICntrl=     0 DoSepK=T KAlg= 1 I1Cent= 0 FoldK=F
 FoFJK:  IHMeth= 1 ICntrl=     0 DoSepK=T KAlg= 1 I1Cent= 0 FoldK=F
 FoFJK:  IHMeth= 1 ICntrl=     0 DoSepK=T KAlg= 1 I1Cent= 0 FoldK=F
 FoFJK:  IHMeth= 1 ICntrl=     0 DoSepK=T KAlg= 1 I1Cent= 0 FoldK=F
 FoFJK:  IHMeth= 1 ICntrl=     0 DoSepK=T KAlg= 1 I1Cent= 0 FoldK=F
 FoFJK:  IHMeth= 1 ICntrl=     0 DoSepK=T KAlg= 1 I1Cent= 0 FoldK=F
 FoFJK:  IHMeth= 1 ICntrl=     0 DoSepK=T KAlg= 1 I1Cent= 0 FoldK=F
 SCF Done:  E(RwB97XD) =  -583.037301633     A.U. after   15 cycles
             Convg  =    0.5693D-08             -V/T =  2.0020
 Calling FoFJK, ICntrl=      2127 FMM=F ISym2X=0 I1Cent= 0 IOpClX= 0 NMat=1 NMatS=1 NMatT=0.
 FoFJK:  IHMeth= 1 ICntrl=  2127 DoSepK=T KAlg= 1 I1Cent= 0 FoldK=F
 ***** Axes restored to original set *****
 -------------------------------------------------------------------
 Center     Atomic                   Forces (Hartrees/Bohr)
 Number     Number              X              Y              Z
 -------------------------------------------------------------------
      1        6          -0.001196110   -0.000726682    0.000001655
      2        6           0.000543332   -0.000373935    0.000011945
      3        1           0.000100403    0.000055947    0.000002211
      4        1           0.000160157    0.000096560    0.000001237
      5        1          -0.000147768    0.000064839    0.000001977
      6        7           0.002686599    0.001007676   -0.000024535
      7       16           0.000003639    0.000629452   -0.000022779
      8        6          -0.001150091   -0.000512272    0.000028456
      9        4          -0.001000160   -0.000241585   -0.000000167
 -------------------------------------------------------------------
 Cartesian Forces:  Max     0.002686599 RMS     0.000713452

 GradGradGradGradGradGradGradGradGradGradGradGradGradGradGradGradGradGrad
 Berny optimization.
 Using GEDIIS/GDIIS optimizer.
 Internal  Forces:  Max     0.001030171 RMS     0.000307072
 Search for a local minimum.
 Step number   2 out of a maximum of   48
 All quantities printed in internal units (Hartrees-Bohrs-Radians)
 Mixed Optimization -- En-DIIS/RFO-DIIS
 Update second derivatives using D2CorX and points    1    2
 DE= -9.80D-05 DEPred=-8.60D-05 R= 1.14D+00
 SS=  1.41D+00  RLast= 2.30D-02 DXNew= 5.0454D-01 6.8932D-02
 Trust test= 1.14D+00 RLast= 2.30D-02 DXMaxT set to 3.00D-01
 Use linear search instead of GDIIS.
     Eigenvalues ---    0.01796   0.01878   0.02113   0.02211   0.02293
     Eigenvalues ---    0.02494   0.15775   0.16000   0.16009   0.21388
     Eigenvalues ---    0.22541   0.25000   0.28249   0.31869   0.35558
     Eigenvalues ---    0.35698   0.35759   0.38679   0.42285   0.49031
     Eigenvalues ---    0.565031000.000001000.000001000.000001000.00000
     Eigenvalues --- 1000.000001000.000001000.000001000.000001000.00000
     Eigenvalues --- 1000.000001000.000001000.000001000.000001000.00000
     Eigenvalues --- 1000.000001000.000001000.00000
 RFO step:  Lambda=-1.07429329D-05 EMin= 1.79580014D-02
 Quartic linear search produced a step of  0.19701.
 Iteration  1 RMS(Cart)=  0.00089943 RMS(Int)=  0.00000092
 Iteration  2 RMS(Cart)=  0.00000108 RMS(Int)=  0.00000036
 New curvilinear step failed, DQL= 1.83D-11 SP=-9.24D-02.
 Iteration  1 RMS(Cart)=  0.00083542 RMS(Int)=  0.00000074
 Iteration  2 RMS(Cart)=  0.00000087 RMS(Int)=  0.00000028
 Variable       Old X    -DE/DX   Delta X   Delta X   Delta X     New X
                                 (Linear)    (Quad)   (Total)
    R1        2.54043   0.00019   0.00120  -0.00038   0.00086   2.54129
    R2        2.04630  -0.00003   0.00019  -0.00021   0.00001   2.04630
    R3        2.66910  -0.00091  -0.00072  -0.00214  -0.00264   2.66647
    R4        2.04594  -0.00004   0.00006  -0.00016  -0.00008   2.04586
    R5        3.26360  -0.00035  -0.00046  -0.00089  -0.00126   3.26234
    R6        2.04959  -0.00007   0.00021  -0.00036  -0.00012   2.04947
    R7        2.57193  -0.00055  -0.00020  -0.00117  -0.00125   2.57068
    R8        2.89979   0.00103   0.00410   0.00154   0.00548   2.90528
    R9        3.14000   0.00033   0.00091   0.00042   0.00129   3.14129
    A1        2.20798  -0.00012  -0.00030  -0.00082  -0.00104   2.20694
    A2        1.96759  -0.00017   0.00037  -0.00128  -0.00078   1.96681
    A3        2.10761   0.00029  -0.00008   0.00210   0.00182   2.10943
    A4        2.22893  -0.00011   0.00006  -0.00105  -0.00089   2.22804
    A5        1.94204  -0.00006  -0.00026   0.00004  -0.00023   1.94181
    A6        2.11222   0.00017   0.00021   0.00101   0.00112   2.11334
    A7        1.93918   0.00064  -0.00021   0.00301   0.00250   1.94168
    A8        2.15087  -0.00031   0.00007  -0.00144  -0.00123   2.14964
    A9        2.19314  -0.00033   0.00015  -0.00157  -0.00127   2.19187
   A10        1.59236   0.00005  -0.00012   0.00081   0.00061   1.59297
   A11        2.15781   0.00030  -0.00021   0.00192   0.00151   2.15932
   A12        2.14177   0.00015  -0.00001   0.00066   0.00058   2.14235
   A13        1.98361  -0.00045   0.00023  -0.00258  -0.00210   1.98151
    D1        0.00003   0.00000   0.00001  -0.00007  -0.00005  -0.00003
    D2        3.14154   0.00000  -0.00002   0.00018   0.00014  -3.14150
    D3        3.14159   0.00000   0.00000   0.00001   0.00001  -3.14159
    D4       -0.00008   0.00000  -0.00002   0.00026   0.00021   0.00013
    D5       -0.00013   0.00001  -0.00005   0.00036   0.00028   0.00015
    D6       -3.14159   0.00000   0.00002  -0.00011  -0.00008   3.14151
    D7        3.14143   0.00001  -0.00005   0.00043   0.00034  -3.14142
    D8       -0.00003   0.00000   0.00001  -0.00004  -0.00002  -0.00005
    D9        0.00021  -0.00001   0.00007  -0.00062  -0.00049  -0.00029
   D10       -3.14145  -0.00001   0.00004  -0.00039  -0.00031   3.14142
   D11       -3.14150   0.00000   0.00003  -0.00023  -0.00018   3.14150
   D12        0.00030  -0.00001   0.00010  -0.00085  -0.00066  -0.00037
   D13       -0.00005   0.00000  -0.00004   0.00026   0.00019   0.00014
   D14       -3.14144  -0.00001   0.00003  -0.00036  -0.00029   3.14146
   D15        3.14151   0.00000  -0.00002   0.00023   0.00018  -3.14149
   D16       -0.00029   0.00001  -0.00010   0.00085   0.00067   0.00038
         Item               Value     Threshold  Converged?
 Maximum Force            0.001030     0.000450     NO 
 RMS     Force            0.000307     0.000300     NO 
 Maximum Displacement     0.003125     0.001800     NO 
 RMS     Displacement     0.000835     0.001200     YES
 Predicted change in Energy=-7.675648D-06
 GradGradGradGradGradGradGradGradGradGradGradGradGradGradGradGradGradGrad

                          Input orientation:                          
 ---------------------------------------------------------------------
 Center     Atomic      Atomic             Coordinates (Angstroms)
 Number     Number       Type             X           Y           Z
 ---------------------------------------------------------------------
      1          6           0       -0.697381    1.150902    0.000047
      2          6           0        0.646757    1.192839    0.000105
      3          1           0       -0.351369   -2.153017    0.000117
      4          1           0       -1.367556    2.001457    0.000112
      5          1           0        1.281124    2.070137    0.000200
      6          7           0       -1.200822   -0.167264   -0.000070
      7         16           0        1.322527   -0.395758   -0.000192
      8          6           0       -0.192322   -1.080211    0.000088
      9          4           0       -2.703153   -0.493787   -0.000052
 ---------------------------------------------------------------------
                    Distance matrix (angstroms):
                    1          2          3          4          5
     1  C    0.000000
     2  C    1.344792   0.000000
     3  H    3.321989   3.491563   0.000000
     4  H    1.082857   2.170557   4.276949   0.000000
     5  H    2.181622   1.082624   4.527700   2.649570   0.000000
     6  N    1.411034   2.294216   2.159811   2.175121   3.341560
     7  S    2.544049   1.726356   2.426909   3.603219   2.466243
     8  C    2.287564   2.422975   1.084532   3.298159   3.477892
     9  Be   2.593863   3.750547   2.878183   2.830205   4.737950
                    6          7          8          9
     6  N    0.000000
     7  S    2.533673   0.000000
     8  C    1.360347   1.662301   0.000000
     9  Be   1.537406   4.026874   2.578404   0.000000
 Stoichiometry    C3H3BeNS(2+)
 Framework group  C1[X(C3H3BeNS)]
 Deg. of freedom    21
 Full point group                 C1      NOp   1
 Largest Abelian subgroup         C1      NOp   1
 Largest concise Abelian subgroup C1      NOp   1
                         Standard orientation:                         
 ---------------------------------------------------------------------
 Center     Atomic      Atomic             Coordinates (Angstroms)
 Number     Number       Type             X           Y           Z
 ---------------------------------------------------------------------
      1          6           0       -0.695140    1.152395    0.000087
      2          6           0        0.649110    1.190582    0.000144
      3          1           0       -0.358345   -2.152477    0.000156
      4          1           0       -1.362940    2.004816    0.000152
      5          1           0        1.285922    2.066108    0.000239
      6          7           0       -1.202256   -0.164362   -0.000030
      7         16           0        1.320446   -0.399894   -0.000152
      8          6           0       -0.196306   -1.080118    0.000128
      9          4           0       -2.705492   -0.486692   -0.000012
 ---------------------------------------------------------------------
 Rotational constants (GHZ):      7.4838262      3.2213718      2.2520075
 Standard basis: 6-311+G(d,p) (5D, 7F)
 There are   158 symmetry adapted basis functions of A   symmetry.
 Integral buffers will be    262144 words long.
 Raffenetti 2 integral format.
 Two-electron integral symmetry is turned on.
   158 basis functions,   254 primitive gaussians,   164 cartesian basis functions
    23 alpha electrons       23 beta electrons
       nuclear repulsion energy       238.3571973682 Hartrees.
 NAtoms=    9 NActive=    9 NUniq=    9 SFac= 7.50D-01 NAtFMM=   80 NAOKFM=F Big=F
 Nuclear repulsion after empirical dispersion term =      238.3546511861 Hartrees.
 One-electron integrals computed using PRISM.
 NBasis=   158 RedAO= T  NBF=   158
 NBsUse=   158 1.00D-06 NBFU=   158
 Initial guess read from the read-write file.
 B after Tr=     0.000000    0.000000    0.000000
         Rot=    1.000000    0.000000    0.000000    0.000000 Ang=   0.00 deg.
 Initial guess orbital symmetries:
       Occupied  (A) (A) (A) (A) (A) (A) (A) (A) (A) (A) (A) (A)
                 (A) (A) (A) (A) (A) (A) (A) (A) (A) (A) (A)
       Virtual   (A) (A) (A) (A) (A) (A) (A) (A) (A) (A) (A) (A)
                 (A) (A) (A) (A) (A) (A) (A) (A) (A) (A) (A) (A)
                 (A) (A) (A) (A) (A) (A) (A) (A) (A) (A) (A) (A)
                 (A) (A) (A) (A) (A) (A) (A) (A) (A) (A) (A) (A)
                 (A) (A) (A) (A) (A) (A) (A) (A) (A) (A) (A) (A)
                 (A) (A) (A) (A) (A) (A) (A) (A) (A) (A) (A) (A)
                 (A) (A) (A) (A) (A) (A) (A) (A) (A) (A) (A) (A)
                 (A) (A) (A) (A) (A) (A) (A) (A) (A) (A) (A) (A)
                 (A) (A) (A) (A) (A) (A) (A) (A) (A) (A) (A) (A)
                 (A) (A) (A) (A) (A) (A) (A) (A) (A) (A) (A) (A)
                 (A) (A) (A) (A) (A) (A) (A) (A) (A) (A) (A) (A)
                 (A) (A) (A)
 Requested convergence on RMS density matrix=1.00D-08 within 128 cycles.
 Requested convergence on MAX density matrix=1.00D-06.
 Requested convergence on             energy=1.00D-06.
 No special actions if energy rises.
 FoFJK:  IHMeth= 1 ICntrl=     0 DoSepK=T KAlg= 1 I1Cent= 0 FoldK=F
 FoFJK:  IHMeth= 1 ICntrl=     0 DoSepK=T KAlg= 1 I1Cent= 0 FoldK=F
 FoFJK:  IHMeth= 1 ICntrl=     0 DoSepK=T KAlg= 1 I1Cent= 0 FoldK=F
 FoFJK:  IHMeth= 1 ICntrl=     0 DoSepK=T KAlg= 1 I1Cent= 0 FoldK=F
 FoFJK:  IHMeth= 1 ICntrl=     0 DoSepK=T KAlg= 1 I1Cent= 0 FoldK=F
 FoFJK:  IHMeth= 1 ICntrl=     0 DoSepK=T KAlg= 1 I1Cent= 0 FoldK=F
 FoFJK:  IHMeth= 1 ICntrl=     0 DoSepK=T KAlg= 1 I1Cent= 0 FoldK=F
 FoFJK:  IHMeth= 1 ICntrl=     0 DoSepK=T KAlg= 1 I1Cent= 0 FoldK=F
 FoFJK:  IHMeth= 1 ICntrl=     0 DoSepK=T KAlg= 1 I1Cent= 0 FoldK=F
 FoFJK:  IHMeth= 1 ICntrl=     0 DoSepK=T KAlg= 1 I1Cent= 0 FoldK=F
 FoFJK:  IHMeth= 1 ICntrl=     0 DoSepK=T KAlg= 1 I1Cent= 0 FoldK=F
 FoFJK:  IHMeth= 1 ICntrl=     0 DoSepK=T KAlg= 1 I1Cent= 0 FoldK=F
 FoFJK:  IHMeth= 1 ICntrl=     0 DoSepK=T KAlg= 1 I1Cent= 0 FoldK=F
 FoFJK:  IHMeth= 1 ICntrl=     0 DoSepK=T KAlg= 1 I1Cent= 0 FoldK=F
 FoFJK:  IHMeth= 1 ICntrl=     0 DoSepK=T KAlg= 1 I1Cent= 0 FoldK=F
 SCF Done:  E(RwB97XD) =  -583.037309629     A.U. after   15 cycles
             Convg  =    0.6545D-08             -V/T =  2.0021
 Calling FoFJK, ICntrl=      2127 FMM=F ISym2X=0 I1Cent= 0 IOpClX= 0 NMat=1 NMatS=1 NMatT=0.
 FoFJK:  IHMeth= 1 ICntrl=  2127 DoSepK=T KAlg= 1 I1Cent= 0 FoldK=F
 ***** Axes restored to original set *****
 -------------------------------------------------------------------
 Center     Atomic                   Forces (Hartrees/Bohr)
 Number     Number              X              Y              Z
 -------------------------------------------------------------------
      1        6          -0.000372574   -0.000297584   -0.000000589
      2        6           0.000160037   -0.000254907   -0.000017192
      3        1           0.000056798    0.000052121   -0.000002288
      4        1           0.000056459    0.000011473   -0.000000776
      5        1          -0.000047097    0.000027270   -0.000002677
      6        7           0.000213803    0.000247508    0.000030926
      7       16           0.000113480    0.000288375    0.000030219
      8        6          -0.000381082   -0.000087667   -0.000037125
      9        4           0.000200176    0.000013412   -0.000000499
 -------------------------------------------------------------------
 Cartesian Forces:  Max     0.000381082 RMS     0.000164419

 GradGradGradGradGradGradGradGradGradGradGradGradGradGradGradGradGradGrad
 Berny optimization.
 Using GEDIIS/GDIIS optimizer.
 Internal  Forces:  Max     0.000365126 RMS     0.000093366
 Search for a local minimum.
 Step number   3 out of a maximum of   48
 All quantities printed in internal units (Hartrees-Bohrs-Radians)
 Mixed Optimization -- En-DIIS/RFO-DIIS
 Swaping is turned off.
 Update second derivatives using D2CorX and points    1    2    3
 DE= -8.00D-06 DEPred=-7.68D-06 R= 1.04D+00
 SS=  1.41D+00  RLast= 8.25D-03 DXNew= 5.0454D-01 2.4755D-02
 Trust test= 1.04D+00 RLast= 8.25D-03 DXMaxT set to 3.00D-01
     Eigenvalues ---    0.01796   0.01886   0.02113   0.02211   0.02296
     Eigenvalues ---    0.02493   0.15044   0.16002   0.16005   0.21389
     Eigenvalues ---    0.22765   0.25008   0.27885   0.32521   0.35576
     Eigenvalues ---    0.35698   0.35761   0.38493   0.41696   0.48605
     Eigenvalues ---    0.564411000.000001000.000001000.000001000.00000
     Eigenvalues --- 1000.000001000.000001000.000001000.000001000.00000
     Eigenvalues --- 1000.000001000.000001000.000001000.000001000.00000
     Eigenvalues --- 1000.000001000.000001000.00000
 En-DIIS/RFO-DIIS IScMMF=        0 using points:     3    2
 RFO step:  Lambda=-5.84357700D-07.
 DIIS coeffs:      1.10559     -0.10559
 Iteration  1 RMS(Cart)=  0.00037636 RMS(Int)=  0.00000016
 Iteration  2 RMS(Cart)=  0.00000013 RMS(Int)=  0.00000009
 Variable       Old X    -DE/DX   Delta X   Delta X   Delta X     New X
                                  (DIIS)     (GDIIS)  (Total)
    R1        2.54129   0.00008   0.00009   0.00019   0.00028   2.54157
    R2        2.04630  -0.00003   0.00000  -0.00007  -0.00007   2.04624
    R3        2.66647  -0.00037  -0.00028  -0.00082  -0.00110   2.66537
    R4        2.04586  -0.00001  -0.00001  -0.00001  -0.00002   2.04584
    R5        3.26234  -0.00022  -0.00013  -0.00065  -0.00078   3.26156
    R6        2.04947  -0.00006  -0.00001  -0.00015  -0.00016   2.04931
    R7        2.57068  -0.00016  -0.00013  -0.00026  -0.00039   2.57029
    R8        2.90528  -0.00020   0.00058  -0.00072  -0.00014   2.90513
    R9        3.14129   0.00017   0.00014   0.00047   0.00060   3.14190
    A1        2.20694  -0.00005  -0.00011  -0.00031  -0.00042   2.20653
    A2        1.96681  -0.00003  -0.00008  -0.00012  -0.00020   1.96661
    A3        2.10943   0.00008   0.00019   0.00042   0.00062   2.11005
    A4        2.22804  -0.00006  -0.00009  -0.00032  -0.00041   2.22763
    A5        1.94181   0.00005  -0.00002   0.00026   0.00024   1.94204
    A6        2.11334   0.00001   0.00012   0.00006   0.00018   2.11351
    A7        1.94168   0.00010   0.00026   0.00018   0.00044   1.94212
    A8        2.14964  -0.00003  -0.00013  -0.00002  -0.00015   2.14949
    A9        2.19187  -0.00007  -0.00013  -0.00016  -0.00029   2.19158
   A10        1.59297  -0.00008   0.00006  -0.00025  -0.00019   1.59278
   A11        2.15932   0.00006   0.00016   0.00021   0.00037   2.15969
   A12        2.14235  -0.00001   0.00006  -0.00014  -0.00008   2.14227
   A13        1.98151  -0.00005  -0.00022  -0.00006  -0.00028   1.98123
    D1       -0.00003   0.00000  -0.00001   0.00009   0.00008   0.00005
    D2       -3.14150  -0.00001   0.00002  -0.00025  -0.00024   3.14145
    D3       -3.14159   0.00000   0.00000  -0.00004  -0.00004   3.14156
    D4        0.00013  -0.00001   0.00002  -0.00038  -0.00036  -0.00023
    D5        0.00015  -0.00001   0.00003  -0.00041  -0.00038  -0.00024
    D6        3.14151   0.00000  -0.00001   0.00019   0.00018  -3.14149
    D7       -3.14142  -0.00001   0.00004  -0.00053  -0.00049   3.14127
    D8       -0.00005   0.00000   0.00000   0.00007   0.00007   0.00002
    D9       -0.00029   0.00001  -0.00005   0.00083   0.00078   0.00049
   D10        3.14142   0.00001  -0.00003   0.00051   0.00048  -3.14128
   D11        3.14150   0.00000  -0.00002   0.00026   0.00024  -3.14144
   D12       -0.00037   0.00002  -0.00007   0.00106   0.00099   0.00062
   D13        0.00014  -0.00001   0.00002  -0.00035  -0.00033  -0.00019
   D14        3.14146   0.00001  -0.00003   0.00045   0.00041  -3.14132
   D15       -3.14149  -0.00001   0.00002  -0.00030  -0.00028   3.14141
   D16        0.00038  -0.00002   0.00007  -0.00109  -0.00102  -0.00064
         Item               Value     Threshold  Converged?
 Maximum Force            0.000365     0.000450     YES
 RMS     Force            0.000093     0.000300     YES
 Maximum Displacement     0.001179     0.001800     YES
 RMS     Displacement     0.000376     0.001200     YES
 Predicted change in Energy=-5.547073D-07
 Optimization completed.
    -- Stationary point found.
                           ----------------------------
                           !   Optimized Parameters   !
                           ! (Angstroms and Degrees)  !
 --------------------------                            --------------------------
 ! Name  Definition              Value          Derivative Info.                !
 --------------------------------------------------------------------------------
 ! R1    R(1,2)                  1.3448         -DE/DX =    0.0001              !
 ! R2    R(1,4)                  1.0829         -DE/DX =    0.0                 !
 ! R3    R(1,6)                  1.411          -DE/DX =   -0.0004              !
 ! R4    R(2,5)                  1.0826         -DE/DX =    0.0                 !
 ! R5    R(2,7)                  1.7264         -DE/DX =   -0.0002              !
 ! R6    R(3,8)                  1.0845         -DE/DX =   -0.0001              !
 ! R7    R(6,8)                  1.3603         -DE/DX =   -0.0002              !
 ! R8    R(6,9)                  1.5374         -DE/DX =   -0.0002              !
 ! R9    R(7,8)                  1.6623         -DE/DX =    0.0002              !
 ! A1    A(2,1,4)              126.4485         -DE/DX =   -0.0001              !
 ! A2    A(2,1,6)              112.6902         -DE/DX =    0.0                 !
 ! A3    A(4,1,6)              120.8613         -DE/DX =    0.0001              !
 ! A4    A(1,2,5)              127.6574         -DE/DX =   -0.0001              !
 ! A5    A(1,2,7)              111.2573         -DE/DX =    0.0001              !
 ! A6    A(5,2,7)              121.0853         -DE/DX =    0.0                 !
 ! A7    A(1,6,8)              111.2499         -DE/DX =    0.0001              !
 ! A8    A(1,6,9)              123.1653         -DE/DX =    0.0                 !
 ! A9    A(8,6,9)              125.5848         -DE/DX =   -0.0001              !
 ! A10   A(2,7,8)               91.2705         -DE/DX =   -0.0001              !
 ! A11   A(3,8,6)              123.7202         -DE/DX =    0.0001              !
 ! A12   A(3,8,7)              122.7477         -DE/DX =    0.0                 !
 ! A13   A(6,8,7)              113.5322         -DE/DX =    0.0                 !
 ! D1    D(4,1,2,5)             -0.0016         -DE/DX =    0.0                 !
 ! D2    D(4,1,2,7)            180.0054         -DE/DX =    0.0                 !
 ! D3    D(6,1,2,5)            180.0003         -DE/DX =    0.0                 !
 ! D4    D(6,1,2,7)              0.0074         -DE/DX =    0.0                 !
 ! D5    D(2,1,6,8)              0.0083         -DE/DX =    0.0                 !
 ! D6    D(2,1,6,9)           -180.0046         -DE/DX =    0.0                 !
 ! D7    D(4,1,6,8)            180.0101         -DE/DX =    0.0                 !
 ! D8    D(4,1,6,9)             -0.0028         -DE/DX =    0.0                 !
 ! D9    D(1,2,7,8)             -0.0163         -DE/DX =    0.0                 !
 ! D10   D(5,2,7,8)           -180.0098         -DE/DX =    0.0                 !
 ! D11   D(1,6,8,3)           -180.0051         -DE/DX =    0.0                 !
 ! D12   D(1,6,8,7)             -0.0211         -DE/DX =    0.0                 !
 ! D13   D(9,6,8,3)              0.0082         -DE/DX =    0.0                 !
 ! D14   D(9,6,8,7)           -180.0078         -DE/DX =    0.0                 !
 ! D15   D(2,7,8,3)            180.0056         -DE/DX =    0.0                 !
 ! D16   D(2,7,8,6)              0.0215         -DE/DX =    0.0                 !
 --------------------------------------------------------------------------------
 GradGradGradGradGradGradGradGradGradGradGradGradGradGradGradGradGradGrad

                          Input orientation:                          
 ---------------------------------------------------------------------
 Center     Atomic      Atomic             Coordinates (Angstroms)
 Number     Number       Type             X           Y           Z
 ---------------------------------------------------------------------
      1          6           0       -0.697381    1.150902    0.000047
      2          6           0        0.646757    1.192839    0.000105
      3          1           0       -0.351369   -2.153017    0.000117
      4          1           0       -1.367556    2.001457    0.000112
      5          1           0        1.281124    2.070137    0.000200
      6          7           0       -1.200822   -0.167264   -0.000070
      7         16           0        1.322527   -0.395758   -0.000192
      8          6           0       -0.192322   -1.080211    0.000088
      9          4           0       -2.703153   -0.493787   -0.000052
 ---------------------------------------------------------------------
                    Distance matrix (angstroms):
                    1          2          3          4          5
     1  C    0.000000
     2  C    1.344792   0.000000
     3  H    3.321989   3.491563   0.000000
     4  H    1.082857   2.170557   4.276949   0.000000
     5  H    2.181622   1.082624   4.527700   2.649570   0.000000
     6  N    1.411034   2.294216   2.159811   2.175121   3.341560
     7  S    2.544049   1.726356   2.426909   3.603219   2.466243
     8  C    2.287564   2.422975   1.084532   3.298159   3.477892
     9  Be   2.593863   3.750547   2.878183   2.830205   4.737950
                    6          7          8          9
     6  N    0.000000
     7  S    2.533673   0.000000
     8  C    1.360347   1.662301   0.000000
     9  Be   1.537406   4.026874   2.578404   0.000000
 Stoichiometry    C3H3BeNS(2+)
 Framework group  C1[X(C3H3BeNS)]
 Deg. of freedom    21
 Full point group                 C1      NOp   1
 Largest Abelian subgroup         C1      NOp   1
 Largest concise Abelian subgroup C1      NOp   1
                         Standard orientation:                         
 ---------------------------------------------------------------------
 Center     Atomic      Atomic             Coordinates (Angstroms)
 Number     Number       Type             X           Y           Z
 ---------------------------------------------------------------------
      1          6           0       -0.695140    1.152395    0.000087
      2          6           0        0.649110    1.190582    0.000144
      3          1           0       -0.358345   -2.152477    0.000156
      4          1           0       -1.362940    2.004816    0.000152
      5          1           0        1.285922    2.066108    0.000239
      6          7           0       -1.202256   -0.164362   -0.000030
      7         16           0        1.320446   -0.399894   -0.000152
      8          6           0       -0.196306   -1.080118    0.000128
      9          4           0       -2.705492   -0.486692   -0.000012
 ---------------------------------------------------------------------
 Rotational constants (GHZ):      7.4838262      3.2213718      2.2520075

 **********************************************************************

            Population analysis using the SCF density.

 **********************************************************************

 Orbital symmetries:
       Occupied  (A) (A) (A) (A) (A) (A) (A) (A) (A) (A) (A) (A)
                 (A) (A) (A) (A) (A) (A) (A) (A) (A) (A) (A)
       Virtual   (A) (A) (A) (A) (A) (A) (A) (A) (A) (A) (A) (A)
                 (A) (A) (A) (A) (A) (A) (A) (A) (A) (A) (A) (A)
                 (A) (A) (A) (A) (A) (A) (A) (A) (A) (A) (A) (A)
                 (A) (A) (A) (A) (A) (A) (A) (A) (A) (A) (A) (A)
                 (A) (A) (A) (A) (A) (A) (A) (A) (A) (A) (A) (A)
                 (A) (A) (A) (A) (A) (A) (A) (A) (A) (A) (A) (A)
                 (A) (A) (A) (A) (A) (A) (A) (A) (A) (A) (A) (A)
                 (A) (A) (A) (A) (A) (A) (A) (A) (A) (A) (A) (A)
                 (A) (A) (A) (A) (A) (A) (A) (A) (A) (A) (A) (A)
                 (A) (A) (A) (A) (A) (A) (A) (A) (A) (A) (A) (A)
                 (A) (A) (A) (A) (A) (A) (A) (A) (A) (A) (A) (A)
                 (A) (A) (A)
 The electronic state is 1-A.
 Alpha  occ. eigenvalues --  -89.43605 -14.88939 -10.75102 -10.70015 -10.67624
 Alpha  occ. eigenvalues --   -8.47495  -6.42266  -6.41825  -6.41760  -4.75849
 Alpha  occ. eigenvalues --   -1.47983  -1.29617  -1.23412  -1.07800  -1.05242
 Alpha  occ. eigenvalues --   -1.02272  -0.90623  -0.90328  -0.88247  -0.85803
 Alpha  occ. eigenvalues --   -0.80587  -0.75526  -0.70435
 Alpha virt. eigenvalues --   -0.45521  -0.37687  -0.35813  -0.30842  -0.26486
 Alpha virt. eigenvalues --   -0.24394  -0.22330  -0.19077  -0.18436  -0.17597
 Alpha virt. eigenvalues --   -0.16655  -0.16476  -0.16126  -0.13978  -0.13671
 Alpha virt. eigenvalues --   -0.13001  -0.12256  -0.11274  -0.09539  -0.09100
 Alpha virt. eigenvalues --   -0.08343  -0.07718  -0.07057  -0.06195  -0.05554
 Alpha virt. eigenvalues --   -0.05434  -0.04872  -0.03906  -0.03372  -0.02859
 Alpha virt. eigenvalues --   -0.01007   0.00007   0.00749   0.01127   0.02234
 Alpha virt. eigenvalues --    0.03107   0.03762   0.05651   0.06505   0.09836
 Alpha virt. eigenvalues --    0.11770   0.12329   0.14594   0.16353   0.17976
 Alpha virt. eigenvalues --    0.19253   0.19696   0.25141   0.26823   0.27588
 Alpha virt. eigenvalues --    0.29558   0.31441   0.31542   0.36250   0.36652
 Alpha virt. eigenvalues --    0.42424   0.43018   0.44933   0.45669   0.46323
 Alpha virt. eigenvalues --    0.46928   0.50566   0.53653   0.55734   0.56171
 Alpha virt. eigenvalues --    0.59025   0.59367   0.61268   0.63835   0.66376
 Alpha virt. eigenvalues --    0.68561   0.72161   0.74129   0.77902   0.78104
 Alpha virt. eigenvalues --    0.79086   0.84893   0.90329   0.94473   0.99411
 Alpha virt. eigenvalues --    1.04170   1.08794   1.21798   1.26905   1.29739
 Alpha virt. eigenvalues --    1.33735   1.34536   1.40008   1.41730   1.45943
 Alpha virt. eigenvalues --    1.46922   1.52797   1.53192   1.56821   1.64153
 Alpha virt. eigenvalues --    1.67903   1.70634   1.79439   1.82721   1.86212
 Alpha virt. eigenvalues --    1.91433   2.05515   2.07681   2.09203   2.19378
 Alpha virt. eigenvalues --    2.25287   2.32411   2.39135   2.46124   2.48968
 Alpha virt. eigenvalues --    2.49135   2.49648   2.52432   2.52512   2.64838
 Alpha virt. eigenvalues --    2.85068   2.95249   3.10941   3.25034   3.28614
 Alpha virt. eigenvalues --    3.50377   3.57539   3.79738   4.09998   4.61662
 Alpha virt. eigenvalues --    7.66554   7.80762  17.03025  17.18591  17.24522
 Alpha virt. eigenvalues --   23.43998  23.51994  23.95602  35.22708 188.94601
          Condensed to atoms (all electrons):
              1          2          3          4          5          6
     1  C    5.174381   0.481605   0.011176   0.373295  -0.012221   0.279359
     2  C    0.481605   5.260500  -0.005412   0.033454   0.368764  -0.137874
     3  H    0.011176  -0.005412   0.345662   0.000066   0.000004  -0.021803
     4  H    0.373295   0.033454   0.000066   0.383169  -0.001810  -0.052594
     5  H   -0.012221   0.368764   0.000004  -0.001810   0.327057   0.010388
     6  N    0.279359  -0.137874  -0.021803  -0.052594   0.010388   6.072882
     7  S    0.230328   0.087289   0.008530  -0.010985   0.006899  -0.097192
     8  C   -0.232904   0.157836   0.366607   0.021870  -0.009768   0.202135
     9  Be   0.007445  -0.112189  -0.001774  -0.002486  -0.000141   0.261776
              7          8          9
     1  C    0.230328  -0.232904   0.007445
     2  C    0.087289   0.157836  -0.112189
     3  H    0.008530   0.366607  -0.001774
     4  H   -0.010985   0.021870  -0.002486
     5  H    0.006899  -0.009768  -0.000141
     6  N   -0.097192   0.202135   0.261776
     7  S   15.222481   0.087926   0.029874
     8  C    0.087926   5.793995  -0.169410
     9  Be   0.029874  -0.169410   3.103747
 Mulliken atomic charges:
              1
     1  C   -0.312465
     2  C   -0.133973
     3  H    0.296945
     4  H    0.256020
     5  H    0.310829
     6  N    0.482922
     7  S    0.434851
     8  C   -0.218287
     9  Be   0.883158
 Sum of Mulliken atomic charges =   2.00000
 Mulliken charges with hydrogens summed into heavy atoms:
              1
     1  C   -0.056444
     2  C    0.176855
     6  N    0.482922
     7  S    0.434851
     8  C    0.078658
     9  Be   0.883158
 Sum of Mulliken charges with hydrogens summed into heavy atoms =   2.00000
 Electronic spatial extent (au):  <R**2>=            440.1707
 Charge=              2.0000 electrons
 Dipole moment (field-independent basis, Debye):
    X=            -14.1694    Y=             -2.4748    Z=              0.0001  Tot=             14.3839
 Quadrupole moment (field-independent basis, Debye-Ang):
   XX=             24.8801   YY=            -19.7672   ZZ=            -36.7122
   XY=              9.7760   XZ=             -0.0004   YZ=              0.0006
 Traceless Quadrupole moment (field-independent basis, Debye-Ang):
   XX=             35.4132   YY=             -9.2341   ZZ=            -26.1791
   XY=              9.7760   XZ=             -0.0004   YZ=              0.0006
 Octapole moment (field-independent basis, Debye-Ang**2):
  XXX=           -157.4163  YYY=             -0.7039  ZZZ=             -0.0013  XYY=             -8.0123
  XXY=            -23.4383  XXZ=             -0.0022  XZZ=             -2.0864  YZZ=             -2.2357
  YYZ=              0.0026  XYZ=              0.0008
 Hexadecapole moment (field-independent basis, Debye-Ang**3):
 XXXX=            187.6072 YYYY=           -141.5053 ZZZZ=            -38.6757 XXXY=             88.5672
 XXXZ=              0.0063 YYYX=             14.3627 YYYZ=             -0.0017 ZZZX=              0.0055
 ZZZY=             -0.0053 XXYY=            -48.3384 XXZZ=            -55.7856 YYZZ=            -44.4272
 XXYZ=              0.0006 YYXZ=              0.0020 ZZXY=              2.0812
 N-N= 2.383546511861D+02 E-N=-1.835283486463D+03  KE= 5.818439741095D+02
 1|1|UNPC-LAPTOP-5JS4LN2H|FOpt|RwB97XD|6-311+G(d,p)|C3H3Be1N1S1(2+)|SOU
 MYO|01-Oct-2021|0||# opt freq wb97xd/6-311+g(d,p)||Thiazole-Be(2+)||2,
 1|C,-0.6973808162,1.150902126,0.0000471086|C,0.6467567169,1.1928390738
 ,0.0001045484|H,-0.3513688458,-2.1530172658,0.0001166901|H,-1.36755596
 67,2.0014570017,0.0001118855|H,1.2811240767,2.0701374827,0.0001998002|
 N,-1.2008219871,-0.1672643284,-0.0000700182|S,1.3225272476,-0.39575802
 21,-0.00019206|C,-0.1923220372,-1.0802105315,0.0000881067|Be,-2.703153
 3883,-0.4937865364,-0.0000520612||Version=IA32W-G09RevA.02|State=1-A|H
 F=-583.0373096|RMSD=6.545e-009|RMSF=1.644e-004|Dipole=-5.5719287,-0.98
 92034,0.000026|Quadrupole=26.2880275,-6.824524,-19.4635035,7.3607152,-
 0.0003095,0.0004745|PG=C01 [X(C3H3Be1N1S1)]||@


 A MAN SHOULD NEVER BE ASHAMED TO OWN HE HAS BEEN IN THE WRONG
 WHICH IS BUT SAYING IN OTHER WORDS,
 THAT HE IS WISER TODAY THAN HE WAS YESTERDAY.

                          -- JONATHAN SWIFT
 Job cpu time:  0 days  0 hours  8 minutes 49.0 seconds.
 File lengths (MBytes):  RWF=     21 Int=      0 D2E=      0 Chk=      2 Scr=      1
 Normal termination of Gaussian 09 at Fri Oct 01 18:34:54 2021.
 Link1:  Proceeding to internal job step number  2.
 ----------------------------------------------------------------------
 #N Geom=AllCheck Guess=TCheck SCRF=Check GenChk RwB97XD/6-311+G(d,p) F
 req
 ----------------------------------------------------------------------
 1/10=4,29=7,30=1,38=1,40=1/1,3;
 2/12=2,40=1/2;
 3/5=4,6=6,7=111,11=2,14=-4,16=1,25=1,30=1,70=2,71=2,74=-58,116=1/1,2,3;
 4/5=101/1;
 5/5=2,98=1/2;
 8/6=4,10=90,11=11/1;
 11/6=1,8=1,9=11,15=111,16=1/1,2,10;
 10/6=1/2;
 6/7=2,8=2,9=2,10=2,18=1,28=1/1;
 7/8=1,10=1,25=1/1,2,3,16;
 1/10=4,30=1/3;
 99//99;
 ---------------
 Thiazole-Be(2+)
 ---------------
 Redundant internal coordinates taken from checkpoint file:
 C:\G09W\Scratch\gxx.chk
 Charge =  2 Multiplicity = 1
 C,0,-0.6973808162,1.150902126,0.0000471086
 C,0,0.6467567169,1.1928390738,0.0001045484
 H,0,-0.3513688458,-2.1530172658,0.0001166901
 H,0,-1.3675559667,2.0014570017,0.0001118855
 H,0,1.2811240767,2.0701374827,0.0001998002
 N,0,-1.2008219871,-0.1672643284,-0.0000700182
 S,0,1.3225272476,-0.3957580221,-0.00019206
 C,0,-0.1923220372,-1.0802105315,0.0000881067
 Be,0,-2.7031533883,-0.4937865364,-0.0000520612
 Recover connectivity data from disk.

 GradGradGradGradGradGradGradGradGradGradGradGradGradGradGradGradGradGrad
 Berny optimization.
 Initialization pass.
                           ----------------------------
                           !    Initial Parameters    !
                           ! (Angstroms and Degrees)  !
 --------------------------                            --------------------------
 ! Name  Definition              Value          Derivative Info.                !
 --------------------------------------------------------------------------------
 ! R1    R(1,2)                  1.3448         calculate D2E/DX2 analytically  !
 ! R2    R(1,4)                  1.0829         calculate D2E/DX2 analytically  !
 ! R3    R(1,6)                  1.411          calculate D2E/DX2 analytically  !
 ! R4    R(2,5)                  1.0826         calculate D2E/DX2 analytically  !
 ! R5    R(2,7)                  1.7264         calculate D2E/DX2 analytically  !
 ! R6    R(3,8)                  1.0845         calculate D2E/DX2 analytically  !
 ! R7    R(6,8)                  1.3603         calculate D2E/DX2 analytically  !
 ! R8    R(6,9)                  1.5374         calculate D2E/DX2 analytically  !
 ! R9    R(7,8)                  1.6623         calculate D2E/DX2 analytically  !
 ! A1    A(2,1,4)              126.4485         calculate D2E/DX2 analytically  !
 ! A2    A(2,1,6)              112.6902         calculate D2E/DX2 analytically  !
 ! A3    A(4,1,6)              120.8613         calculate D2E/DX2 analytically  !
 ! A4    A(1,2,5)              127.6574         calculate D2E/DX2 analytically  !
 ! A5    A(1,2,7)              111.2573         calculate D2E/DX2 analytically  !
 ! A6    A(5,2,7)              121.0853         calculate D2E/DX2 analytically  !
 ! A7    A(1,6,8)              111.2499         calculate D2E/DX2 analytically  !
 ! A8    A(1,6,9)              123.1653         calculate D2E/DX2 analytically  !
 ! A9    A(8,6,9)              125.5848         calculate D2E/DX2 analytically  !
 ! A10   A(2,7,8)               91.2705         calculate D2E/DX2 analytically  !
 ! A11   A(3,8,6)              123.7202         calculate D2E/DX2 analytically  !
 ! A12   A(3,8,7)              122.7477         calculate D2E/DX2 analytically  !
 ! A13   A(6,8,7)              113.5322         calculate D2E/DX2 analytically  !
 ! D1    D(4,1,2,5)             -0.0016         calculate D2E/DX2 analytically  !
 ! D2    D(4,1,2,7)           -179.9946         calculate D2E/DX2 analytically  !
 ! D3    D(6,1,2,5)           -179.9997         calculate D2E/DX2 analytically  !
 ! D4    D(6,1,2,7)              0.0074         calculate D2E/DX2 analytically  !
 ! D5    D(2,1,6,8)              0.0083         calculate D2E/DX2 analytically  !
 ! D6    D(2,1,6,9)            179.9954         calculate D2E/DX2 analytically  !
 ! D7    D(4,1,6,8)           -179.9899         calculate D2E/DX2 analytically  !
 ! D8    D(4,1,6,9)             -0.0028         calculate D2E/DX2 analytically  !
 ! D9    D(1,2,7,8)             -0.0163         calculate D2E/DX2 analytically  !
 ! D10   D(5,2,7,8)            179.9902         calculate D2E/DX2 analytically  !
 ! D11   D(1,6,8,3)            179.9949         calculate D2E/DX2 analytically  !
 ! D12   D(1,6,8,7)             -0.0211         calculate D2E/DX2 analytically  !
 ! D13   D(9,6,8,3)              0.0082         calculate D2E/DX2 analytically  !
 ! D14   D(9,6,8,7)            179.9922         calculate D2E/DX2 analytically  !
 ! D15   D(2,7,8,3)           -179.9944         calculate D2E/DX2 analytically  !
 ! D16   D(2,7,8,6)              0.0215         calculate D2E/DX2 analytically  !
 --------------------------------------------------------------------------------
 Trust Radius=3.00D-01 FncErr=1.00D-07 GrdErr=1.00D-07
 Number of steps in this run=   2 maximum allowed number of steps=   2.
 GradGradGradGradGradGradGradGradGradGradGradGradGradGradGradGradGradGrad

                          Input orientation:                          
 ---------------------------------------------------------------------
 Center     Atomic      Atomic             Coordinates (Angstroms)
 Number     Number       Type             X           Y           Z
 ---------------------------------------------------------------------
      1          6           0       -0.697381    1.150902    0.000047
      2          6           0        0.646757    1.192839    0.000105
      3          1           0       -0.351369   -2.153017    0.000117
      4          1           0       -1.367556    2.001457    0.000112
      5          1           0        1.281124    2.070137    0.000200
      6          7           0       -1.200822   -0.167264   -0.000070
      7         16           0        1.322527   -0.395758   -0.000192
      8          6           0       -0.192322   -1.080211    0.000088
      9          4           0       -2.703153   -0.493787   -0.000052
 ---------------------------------------------------------------------
                    Distance matrix (angstroms):
                    1          2          3          4          5
     1  C    0.000000
     2  C    1.344792   0.000000
     3  H    3.321989   3.491563   0.000000
     4  H    1.082857   2.170557   4.276949   0.000000
     5  H    2.181622   1.082624   4.527700   2.649570   0.000000
     6  N    1.411034   2.294216   2.159811   2.175121   3.341560
     7  S    2.544049   1.726356   2.426909   3.603219   2.466243
     8  C    2.287564   2.422975   1.084532   3.298159   3.477892
     9  Be   2.593863   3.750547   2.878183   2.830205   4.737950
                    6          7          8          9
     6  N    0.000000
     7  S    2.533673   0.000000
     8  C    1.360347   1.662301   0.000000
     9  Be   1.537406   4.026874   2.578404   0.000000
 Stoichiometry    C3H3BeNS(2+)
 Framework group  C1[X(C3H3BeNS)]
 Deg. of freedom    21
 Full point group                 C1      NOp   1
 Largest Abelian subgroup         C1      NOp   1
 Largest concise Abelian subgroup C1      NOp   1
                         Standard orientation:                         
 ---------------------------------------------------------------------
 Center     Atomic      Atomic             Coordinates (Angstroms)
 Number     Number       Type             X           Y           Z
 ---------------------------------------------------------------------
      1          6           0       -0.695140    1.152395    0.000087
      2          6           0        0.649110    1.190582    0.000144
      3          1           0       -0.358345   -2.152477    0.000156
      4          1           0       -1.362940    2.004816    0.000152
      5          1           0        1.285922    2.066108    0.000239
      6          7           0       -1.202256   -0.164362   -0.000030
      7         16           0        1.320446   -0.399894   -0.000152
      8          6           0       -0.196306   -1.080118    0.000128
      9          4           0       -2.705492   -0.486692   -0.000012
 ---------------------------------------------------------------------
 Rotational constants (GHZ):      7.4838262      3.2213718      2.2520075
 Standard basis: 6-311+G(d,p) (5D, 7F)
 There are   158 symmetry adapted basis functions of A   symmetry.
 Integral buffers will be    262144 words long.
 Raffenetti 2 integral format.
 Two-electron integral symmetry is turned on.
   158 basis functions,   254 primitive gaussians,   164 cartesian basis functions
    23 alpha electrons       23 beta electrons
       nuclear repulsion energy       238.3571973682 Hartrees.
 NAtoms=    9 NActive=    9 NUniq=    9 SFac= 7.50D-01 NAtFMM=   80 NAOKFM=F Big=F
 Nuclear repulsion after empirical dispersion term =      238.3546511861 Hartrees.
 One-electron integrals computed using PRISM.
 NBasis=   158 RedAO= T  NBF=   158
 NBsUse=   158 1.00D-06 NBFU=   158
 Initial guess read from the checkpoint file:  C:\G09W\Scratch\gxx.chk
 B after Tr=     0.000000    0.000000    0.000000
         Rot=    1.000000    0.000000    0.000000    0.000000 Ang=   0.00 deg.
 Initial guess orbital symmetries:
       Occupied  (A) (A) (A) (A) (A) (A) (A) (A) (A) (A) (A) (A)
                 (A) (A) (A) (A) (A) (A) (A) (A) (A) (A) (A)
       Virtual   (A) (A) (A) (A) (A) (A) (A) (A) (A) (A) (A) (A)
                 (A) (A) (A) (A) (A) (A) (A) (A) (A) (A) (A) (A)
                 (A) (A) (A) (A) (A) (A) (A) (A) (A) (A) (A) (A)
                 (A) (A) (A) (A) (A) (A) (A) (A) (A) (A) (A) (A)
                 (A) (A) (A) (A) (A) (A) (A) (A) (A) (A) (A) (A)
                 (A) (A) (A) (A) (A) (A) (A) (A) (A) (A) (A) (A)
                 (A) (A) (A) (A) (A) (A) (A) (A) (A) (A) (A) (A)
                 (A) (A) (A) (A) (A) (A) (A) (A) (A) (A) (A) (A)
                 (A) (A) (A) (A) (A) (A) (A) (A) (A) (A) (A) (A)
                 (A) (A) (A) (A) (A) (A) (A) (A) (A) (A) (A) (A)
                 (A) (A) (A) (A) (A) (A) (A) (A) (A) (A) (A) (A)
                 (A) (A) (A)
 Requested convergence on RMS density matrix=1.00D-08 within 128 cycles.
 Requested convergence on MAX density matrix=1.00D-06.
 Requested convergence on             energy=1.00D-06.
 No special actions if energy rises.
 FoFJK:  IHMeth= 1 ICntrl=     0 DoSepK=T KAlg= 1 I1Cent= 0 FoldK=F
 SCF Done:  E(RwB97XD) =  -583.037309629     A.U. after    1 cycles
             Convg  =    0.9526D-09             -V/T =  2.0021
 Range of M.O.s used for correlation:     1   158
 NBasis=   158 NAE=    23 NBE=    23 NFC=     0 NFV=     0
[...]
 Atom     8 has atomic number  6 and mass  12.00000
 Atom     9 has atomic number  4 and mass   9.01218
 Molecular mass:    94.01080 amu.
 Principal axes and moments of inertia in atomic units:
                           1         2         3
     Eigenvalues --   241.15221 560.23997 801.39217
           X            0.99998  -0.00670   0.00004
           Y            0.00670   0.99998  -0.00006
           Z           -0.00003   0.00006   1.00000
 This molecule is an asymmetric top.
 Rotational symmetry number  1.
 Rotational temperatures (Kelvin)      0.35917     0.15460     0.10808
 Rotational constants (GHZ):           7.48383     3.22137     2.25201
 Zero-point vibrational energy     154199.5 (Joules/Mol)
                                   36.85456 (Kcal/Mol)
 Warning -- explicit consideration of   5 degrees of freedom as
           vibrations may cause significant error
 Vibrational temperatures:    257.18   382.63   658.83   866.51   873.96
          (Kelvin)           1008.22  1106.36  1178.16  1209.35  1314.90
                             1401.14  1422.42  1642.71  1710.47  1844.41
                             1872.44  2087.01  2270.41  4651.82  4653.34
                             4679.56
 
 Zero-point correction=                           0.058731 (Hartree/Particle)
 Thermal correction to Energy=                    0.063738
 Thermal correction to Enthalpy=                  0.064682
 Thermal correction to Gibbs Free Energy=         0.030114
 Sum of electronic and zero-point Energies=           -582.978578
 Sum of electronic and thermal Energies=              -582.973572
 Sum of electronic and thermal Enthalpies=            -582.972628
 Sum of electronic and thermal Free Energies=         -583.007196
 
                     E (Thermal)             CV                S
                      KCal/Mol        Cal/Mol-Kelvin    Cal/Mol-Kelvin
 Total                   39.996             17.876             72.756
 Electronic               0.000              0.000              0.000
 Translational            0.889              2.981             39.534
 Rotational               0.889              2.981             26.185
 Vibrational             38.219             11.915              7.037
 Vibration     1          0.629              1.868              2.341
 Vibration     2          0.672              1.736              1.622
 Vibration     3          0.816              1.343              0.772
 Vibration     4          0.961              1.027              0.446
 Vibration     5          0.966              1.016              0.437
                       Q            Log10(Q)             Ln(Q)
 Total Bot       0.140856D-13        -13.851226        -31.893626
 Total V=0       0.145653D+14         13.163320         30.309664
 Vib (Bot)       0.333773D-26        -26.476549        -60.964508
 Vib (Bot)    1  0.112411D+01          0.050808          0.116990
 Vib (Bot)    2  0.728200D+00         -0.137750         -0.317180
 Vib (Bot)    3  0.372086D+00         -0.429357         -0.988631
 Vib (Bot)    4  0.247360D+00         -0.606670         -1.396909
 Vib (Bot)    5  0.243940D+00         -0.612718         -1.410835
 Vib (V=0)       0.345141D+01          0.537996          1.238782
 Vib (V=0)    1  0.173029D+01          0.238120          0.548291
 Vib (V=0)    2  0.138333D+01          0.140926          0.324495
 Vib (V=0)    3  0.112326D+01          0.050479          0.116231
 Vib (V=0)    4  0.105784D+01          0.024421          0.056231
 Vib (V=0)    5  0.105633D+01          0.023801          0.054804
 Electronic      0.100000D+01          0.000000          0.000000
 Translational   0.358279D+08          7.554222         17.394239
 Rotational      0.117788D+06          5.071102         11.676643
 ***** Axes restored to original set *****
 -------------------------------------------------------------------
 Center     Atomic                   Forces (Hartrees/Bohr)
 Number     Number              X              Y              Z
 -------------------------------------------------------------------
      1        6          -0.000372563   -0.000297579   -0.000000589
      2        6           0.000160026   -0.000254902   -0.000017192
      3        1           0.000056796    0.000052120   -0.000002288
      4        1           0.000056457    0.000011474   -0.000000776
      5        1          -0.000047096    0.000027268   -0.000002677
      6        7           0.000213790    0.000247517    0.000030926
      7       16           0.000113476    0.000288365    0.000030219
      8        6          -0.000381062   -0.000087672   -0.000037125
      9        4           0.000200176    0.000013408   -0.000000499
 -------------------------------------------------------------------
 Cartesian Forces:  Max     0.000381062 RMS     0.000164415

 GradGradGradGradGradGradGradGradGradGradGradGradGradGradGradGradGradGrad
 Berny optimization.
 Internal  Forces:  Max     0.000365123 RMS     0.000093364
 Search for a local minimum.
 Step number   1 out of a maximum of    2
 All quantities printed in internal units (Hartrees-Bohrs-Radians)
 Second derivative matrix not updated -- analytic derivatives used.
     Eigenvalues ---    0.00665   0.01582   0.01972   0.03094   0.04159
     Eigenvalues ---    0.05064   0.06013   0.09629   0.11230   0.12107
     Eigenvalues ---    0.18262   0.22164   0.23972   0.27440   0.33091
     Eigenvalues ---    0.36611   0.36795   0.36851   0.40481   0.43479
     Eigenvalues ---    0.548551000.000001000.000001000.000001000.00000
     Eigenvalues --- 1000.000001000.000001000.000001000.000001000.00000
     Eigenvalues --- 1000.000001000.000001000.000001000.000001000.00000
     Eigenvalues --- 1000.000001000.000001000.00000
 Angle between quadratic step and forces=  29.07 degrees.
 Linear search not attempted -- first point.
 Iteration  1 RMS(Cart)=  0.00037862 RMS(Int)=  0.00000013
 Iteration  2 RMS(Cart)=  0.00000013 RMS(Int)=  0.00000004
 Variable       Old X    -DE/DX   Delta X   Delta X   Delta X     New X
                                 (Linear)    (Quad)   (Total)
    R1        2.54129   0.00008   0.00000   0.00037   0.00037   2.54166
    R2        2.04630  -0.00003   0.00000  -0.00007  -0.00007   2.04623
    R3        2.66647  -0.00037   0.00000  -0.00126  -0.00126   2.66521
    R4        2.04586  -0.00001   0.00000  -0.00001  -0.00001   2.04585
    R5        3.26234  -0.00022   0.00000  -0.00114  -0.00114   3.26120
    R6        2.04947  -0.00006   0.00000  -0.00017  -0.00017   2.04930
    R7        2.57068  -0.00016   0.00000  -0.00032  -0.00032   2.57036
    R8        2.90528  -0.00020   0.00000  -0.00059  -0.00059   2.90469
    R9        3.14129   0.00017   0.00000   0.00077   0.00077   3.14206
    A1        2.20694  -0.00005   0.00000  -0.00064  -0.00064   2.20631
    A2        1.96681  -0.00003   0.00000  -0.00022  -0.00022   1.96659
    A3        2.10943   0.00008   0.00000   0.00086   0.00086   2.11028
    A4        2.22804  -0.00006   0.00000  -0.00068  -0.00068   2.22737
    A5        1.94181   0.00005   0.00000   0.00026   0.00026   1.94207
    A6        2.11334   0.00001   0.00000   0.00041   0.00041   2.11375
    A7        1.94168   0.00010   0.00000   0.00053   0.00053   1.94220
    A8        2.14964  -0.00003   0.00000   0.00015   0.00015   2.14979
    A9        2.19187  -0.00007   0.00000  -0.00067  -0.00067   2.19120
   A10        1.59297  -0.00008   0.00000  -0.00010  -0.00010   1.59287
   A11        2.15932   0.00006   0.00000   0.00054   0.00054   2.15987
   A12        2.14235  -0.00001   0.00000  -0.00007  -0.00007   2.14228
   A13        1.98151  -0.00005   0.00000  -0.00047  -0.00047   1.98104
    D1       -0.00003   0.00000   0.00000   0.00003   0.00003   0.00000
    D2       -3.14150  -0.00001   0.00000  -0.00009  -0.00009  -3.14159
    D3       -3.14159   0.00000   0.00000  -0.00001  -0.00001   3.14159
    D4        0.00013  -0.00001   0.00000  -0.00013  -0.00013   0.00000
    D5        0.00015  -0.00001   0.00000  -0.00015  -0.00015   0.00000
    D6        3.14151   0.00000   0.00000   0.00008   0.00008   3.14159
    D7       -3.14142  -0.00001   0.00000  -0.00018  -0.00018   3.14159
    D8       -0.00005   0.00000   0.00000   0.00005   0.00005   0.00000
    D9       -0.00029   0.00001   0.00000   0.00029   0.00029   0.00000
   D10        3.14142   0.00001   0.00000   0.00017   0.00017  -3.14159
   D11        3.14150   0.00000   0.00000   0.00009   0.00009  -3.14159
   D12       -0.00037   0.00002   0.00000   0.00037   0.00037   0.00000
   D13        0.00014  -0.00001   0.00000  -0.00014  -0.00014   0.00000
   D14        3.14146   0.00001   0.00000   0.00014   0.00014  -3.14159
   D15       -3.14149  -0.00001   0.00000  -0.00010  -0.00010   3.14159
   D16        0.00038  -0.00002   0.00000  -0.00038  -0.00038   0.00000
         Item               Value     Threshold  Converged?
 Maximum Force            0.000365     0.000450     YES
 RMS     Force            0.000093     0.000300     YES
 Maximum Displacement     0.001093     0.001800     YES
 RMS     Displacement     0.000379     0.001200     YES
 Predicted change in Energy=-7.024947D-07
 Optimization completed.
    -- Stationary point found.
                           ----------------------------
                           !   Optimized Parameters   !
                           ! (Angstroms and Degrees)  !
 --------------------------                            --------------------------
 ! Name  Definition              Value          Derivative Info.                !
 --------------------------------------------------------------------------------
 ! R1    R(1,2)                  1.3448         -DE/DX =    0.0001              !
 ! R2    R(1,4)                  1.0829         -DE/DX =    0.0                 !
 ! R3    R(1,6)                  1.411          -DE/DX =   -0.0004              !
 ! R4    R(2,5)                  1.0826         -DE/DX =    0.0                 !
 ! R5    R(2,7)                  1.7264         -DE/DX =   -0.0002              !
 ! R6    R(3,8)                  1.0845         -DE/DX =   -0.0001              !
 ! R7    R(6,8)                  1.3603         -DE/DX =   -0.0002              !
 ! R8    R(6,9)                  1.5374         -DE/DX =   -0.0002              !
 ! R9    R(7,8)                  1.6623         -DE/DX =    0.0002              !
 ! A1    A(2,1,4)              126.4485         -DE/DX =   -0.0001              !
 ! A2    A(2,1,6)              112.6902         -DE/DX =    0.0                 !
 ! A3    A(4,1,6)              120.8613         -DE/DX =    0.0001              !
 ! A4    A(1,2,5)              127.6574         -DE/DX =   -0.0001              !
 ! A5    A(1,2,7)              111.2573         -DE/DX =    0.0001              !
 ! A6    A(5,2,7)              121.0853         -DE/DX =    0.0                 !
 ! A7    A(1,6,8)              111.2499         -DE/DX =    0.0001              !
 ! A8    A(1,6,9)              123.1653         -DE/DX =    0.0                 !
 ! A9    A(8,6,9)              125.5848         -DE/DX =   -0.0001              !
 ! A10   A(2,7,8)               91.2705         -DE/DX =   -0.0001              !
 ! A11   A(3,8,6)              123.7202         -DE/DX =    0.0001              !
 ! A12   A(3,8,7)              122.7477         -DE/DX =    0.0                 !
 ! A13   A(6,8,7)              113.5322         -DE/DX =    0.0                 !
 ! D1    D(4,1,2,5)             -0.0016         -DE/DX =    0.0                 !
 ! D2    D(4,1,2,7)           -179.9946         -DE/DX =    0.0                 !
 ! D3    D(6,1,2,5)            180.0003         -DE/DX =    0.0                 !
 ! D4    D(6,1,2,7)              0.0074         -DE/DX =    0.0                 !
 ! D5    D(2,1,6,8)              0.0083         -DE/DX =    0.0                 !
 ! D6    D(2,1,6,9)            179.9954         -DE/DX =    0.0                 !
 ! D7    D(4,1,6,8)            180.0101         -DE/DX =    0.0                 !
 ! D8    D(4,1,6,9)             -0.0028         -DE/DX =    0.0                 !
 ! D9    D(1,2,7,8)             -0.0163         -DE/DX =    0.0                 !
 ! D10   D(5,2,7,8)           -180.0098         -DE/DX =    0.0                 !
 ! D11   D(1,6,8,3)           -180.0051         -DE/DX =    0.0                 !
 ! D12   D(1,6,8,7)             -0.0211         -DE/DX =    0.0                 !
 ! D13   D(9,6,8,3)              0.0082         -DE/DX =    0.0                 !
 ! D14   D(9,6,8,7)           -180.0078         -DE/DX =    0.0                 !
 ! D15   D(2,7,8,3)            180.0056         -DE/DX =    0.0                 !
 ! D16   D(2,7,8,6)              0.0215         -DE/DX =    0.0                 !
 --------------------------------------------------------------------------------
 GradGradGradGradGradGradGradGradGradGradGradGradGradGradGradGradGradGrad

 1|1|UNPC-LAPTOP-5JS4LN2H|Freq|RwB97XD|6-311+G(d,p)|C3H3Be1N1S1(2+)|SOU
 MYO|01-Oct-2021|0||#N Geom=AllCheck Guess=TCheck SCRF=Check GenChk RwB
 97XD/6-311+G(d,p) Freq||Thiazole-Be(2+)||2,1|C,-0.6973808162,1.1509021
 26,0.0000471086|C,0.6467567169,1.1928390738,0.0001045484|H,-0.35136884
 58,-2.1530172658,0.0001166901|H,-1.3675559667,2.0014570017,0.000111885
 5|H,1.2811240767,2.0701374827,0.0001998002|N,-1.2008219871,-0.16726432
 84,-0.0000700182|S,1.3225272476,-0.3957580221,-0.00019206|C,-0.1923220
 372,-1.0802105315,0.0000881067|Be,-2.7031533883,-0.4937865364,-0.00005
 20612||Version=IA32W-G09RevA.02|State=1-A|HF=-583.0373096|RMSD=9.526e-
 010|RMSF=1.644e-004|ZeroPoint=0.0587315|Thermal=0.0637378|Dipole=-5.57
 19285,-0.9892035,0.000026|DipoleDeriv=0.1908334,-0.1367502,-0.0000123,
 0.2994746,0.1061202,0.0000346,0.0000298,0.0000032,-0.0360941,-0.171318
 9,0.1646754,-0.0000105,-0.0657615,0.0126278,0.0000579,0.0000376,0.0000
 204,-0.1015643,0.0954884,-0.0465309,0.0000073,0.0052089,0.2521336,0.00
 00132,-0.0000109,-0.0000513,0.1901273,0.0748685,-0.0036659,0.0000201,-
 0.0484239,0.1942272,-0.0000335,-0.0000076,-0.0000132,0.1996827,0.19761
 8,0.103205,0.0000297,0.0776917,0.2197631,0.0000167,0.0000211,-0.00001,
 0.2139688,-1.5507086,-0.0520728,-0.000035,0.0193144,-0.4109319,-0.0000
 168,-0.0001778,-0.0000055,-0.2874713,0.2509852,-0.2243679,-0.0000461,-
 0.2557407,0.4081284,-0.0000039,-0.0000349,0.0000153,0.4460533,0.888541
 5,0.0647634,-0.0000087,-0.2181426,-0.09888,-0.0000845,0.0001123,0.0000
 443,-0.0235714,2.0236924,0.1307438,0.0000555,0.1863791,1.3168116,0.000
 0162,0.0000304,-0.0000033,1.398869|Polar=70.20421,1.4104525,56.7245146
 ,-0.0011573,0.0018654,31.5312459|PG=C01 [X(C3H3Be1N1S1)]|NImag=0||0.81
 705761,-0.14328112,0.63155827,0.00000788,0.00003232,0.12202835,-0.4655
 0386,0.00686120,-0.00001502,0.76083367,-0.02064714,-0.10069803,-0.0000
 0224,0.17230730,0.57325920,-0.00001720,-0.00000308,-0.05574719,0.00002
 072,0.00005789,0.09677810,-0.00556548,0.00183526,-0.00000118,-0.006399
 90,-0.00321773,0.00000144,0.06594977,0.00374343,0.00168309,0.00000009,
 -0.00154077,0.00179514,0.00000066,0.04679345,0.35860846,-0.00000347,-0
 .00000264,0.00400582,0.00000408,-0.00000227,0.00299016,-0.00000246,-0.
 00000851,0.02054898,-0.18076762,0.15282066,0.00000805,-0.00792945,0.02
 110187,0.00000282,0.00099974,-0.00026336,0.00000056,0.17873044,0.14648
 818,-0.23362127,-0.00001648,-0.00424811,0.00740912,-0.00000035,0.00086
 458,-0.00024517,-0.00000045,-0.15125135,0.24601511,0.00000765,-0.00001
 696,-0.03122518,0.00000153,-0.00000082,0.00571687,0.00000008,0.0000004
 5,0.00159592,-0.00000995,0.00001751,0.02242534,-0.00481916,-0.02099934
 ,-0.00000120,-0.15926282,-0.14852936,-0.00001417,0.00145734,-0.0000891
 7,-0.00000049,0.00046854,0.00025100,-0.00000008,0.15905996,0.00411643,
 0.00758613,0.00000156,-0.15127746,-0.25356924,-0.00002609,-0.00083399,
 0.00004483,-0.00000015,-0.00026204,0.00024004,0.00000042,0.15230055,0.
 25753865,-0.00000242,-0.00000189,0.00060559,-0.00001143,-0.00002513,-0
 .03001554,0.00000012,0.00000040,0.00166843,0.00000031,0.00000022,-0.00
 352636,0.00001507,0.00002587,0.02354687,-0.11344090,-0.02666770,-0.000
 00484,-0.05270818,-0.01921708,-0.00000086,0.00773880,-0.00444777,0.000
 00155,0.01458004,0.01407893,0.00000269,-0.00445770,0.00341355,0.000000
 95,0.64621360,-0.04337547,-0.20937860,-0.00001209,-0.06777527,-0.02004
 055,-0.00000323,0.02936286,-0.00701831,0.00000590,-0.01980189,-0.01568
 203,-0.00000168,-0.00214200,0.00366797,0.00000236,-0.00889079,0.488543
 02,-0.00000301,-0.00000892,-0.05701466,-0.00000754,0.00000192,0.006877
 34,-0.00000024,-0.00000157,-0.00365917,-0.00000043,0.00000029,-0.00464
 462,-0.00000045,-0.00000110,0.00742422,0.00002318,-0.00000480,0.101636
 40,-0.03626853,0.00420430,0.00000408,-0.07691155,0.03818756,0.00001079
 ,0.00358543,0.00148740,-0.00000242,-0.00365185,-0.00124424,-0.00000066
 ,0.01044975,-0.00979071,-0.00000430,-0.07928628,0.03624846,0.00000914,
 0.40398062,0.06295631,-0.01439722,-0.00000597,0.04922421,-0.15254545,-
 0.00002784,-0.02038634,-0.00171042,0.00000562,0.00218789,0.00209442,0.
 00000104,0.01262643,-0.01224370,-0.00000065,-0.02365913,-0.01623455,-0
 .00000329,-0.00035618,0.28131085,0.00000629,0.00000229,0.00827895,0.00
 001331,-0.00002425,-0.03369243,-0.00000261,-0.00000171,-0.00002079,-0.
 00000133,0.00000077,0.00613382,0.00000069,0.00000076,-0.00222013,-0.00
 000321,-0.00000611,0.01699308,-0.00004956,0.00001782,0.04264212,0.0019
 5166,0.03719878,0.00000165,0.00415035,-0.03923867,-0.00000302,-0.06787
 994,-0.04792160,0.00000280,-0.00365557,-0.00447072,-0.00000135,-0.0024
 8547,0.00318520,0.00000212,-0.21673302,0.12107878,-0.00002058,-0.22466
 191,-0.08866104,0.00003667,0.54049896,0.00428642,-0.08183434,0.0000024
 9,-0.00182746,-0.05013347,0.00000313,-0.05675956,-0.35190580,0.0000026
 3,-0.00421147,-0.00256512,0.00000020,0.00667193,-0.00318605,-0.0000011
 1,0.10750268,-0.20671402,0.00001568,-0.07317722,-0.08557395,0.00001025
 ,0.01429446,0.77804448,0.00000428,-0.00000114,0.00973304,-0.00000534,-
 0.00000496,0.00706950,0.00000487,0.00001019,-0.02765058,0.00000014,-0.
 00000125,0.00232376,0.00000081,-0.00000095,0.00175233,-0.00002085,0.00
 001758,-0.05752917,0.00003201,0.00001307,-0.04059924,-0.00001667,-0.00
 003261,0.10483645,-0.01264372,-0.01197205,0.00000058,0.00373173,-0.000
 74676,-0.00000052,0.00011423,0.00223841,-0.00000015,0.00122571,-0.0004
 6825,0.00000009,-0.00041044,-0.00085153,-0.00000042,-0.20190635,-0.044
 70469,-0.00000007,0.00276434,0.00606785,-0.00000024,-0.03118505,0.0032
 2021,0.00000074,0.23830955,-0.01428704,-0.00089802,0.00000033,-0.00172
 363,-0.00547671,-0.00000110,0.00234146,-0.00125182,-0.00000013,-0.0003
 2031,-0.00364512,-0.00000017,-0.00009003,-0.00007863,-0.00000006,-0.04
 211270,-0.01714295,0.00000178,0.00444063,-0.00069998,0.00000017,0.0045
 3480,0.00386826,0.00000008,0.04721682,0.02532497,0.,0.00000003,-0.0006
 6471,-0.00000033,-0.00000015,0.00002320,-0.00000003,0.00000001,0.00052
 123,-0.00000016,-0.00000026,0.00120045,-0.00000017,-0.00000032,0.00076
 458,0.00000139,0.00000207,-0.01008343,0.00000091,0.00000020,0.00248462
 ,-0.00000161,-0.00000067,0.00006391,0.,-0.00000091,0.00569014||0.00037
 256,0.00029758,0.00000059,-0.00016003,0.00025490,0.00001719,-0.0000568
 0,-0.00005212,0.00000229,-0.00005646,-0.00001147,0.00000078,0.00004710
 ,-0.00002727,0.00000268,-0.00021379,-0.00024752,-0.00003093,-0.0001134
 8,-0.00028837,-0.00003022,0.00038106,0.00008767,0.00003712,-0.00020018
 ,-0.00001341,0.00000050|||@


0EVERYBODY IS IGNORANT, ONLY ON DIFFERENT SUBJECTS.
0          WILL ROGERS
 Job cpu time:  0 days  0 hours 12 minutes 59.0 seconds.
 File lengths (MBytes):  RWF=     29 Int=      0 D2E=      0 Chk=      3 Scr=      1
 Normal termination of Gaussian 09 at Fri Oct 01 18:47:53 2021.
