 Entering Link 1 = C:\G09W\l1.exe PID=     22700.
  
 Copyright (c) 1988,1990,1992,1993,1995,1998,2003,2009, Gaussian, Inc.
                  All Rights Reserved.
  
 This is part of the Gaussian(R) 09 program.  It is based on
 the Gaussian(R) 03 system (copyright 2003, Gaussian, Inc.),
 the Gaussian(R) 98 system (copyright 1998, Gaussian, Inc.),
 the Gaussian(R) 94 system (copyright 1995, Gaussian, Inc.),
 the Gaussian 92(TM) system (copyright 1992, Gaussian, Inc.),
 the Gaussian 90(TM) system (copyright 1990, Gaussian, Inc.),
 the Gaussian 88(TM) system (copyright 1988, Gaussian, Inc.),
 the Gaussian 86(TM) system (copyright 1986, Carnegie Mellon
 University), and the Gaussian 82(TM) system (copyright 1983,
 Carnegie Mellon University). Gaussian is a federally registered
 trademark of Gaussian, Inc.
  
 This software contains proprietary and confidential information,
 including trade secrets, belonging to Gaussian, Inc.
  
 This software is provided under written license and may be
 used, copied, transmitted, or stored only in accord with that
 written license.
  
 The following legend is applicable only to US Government
 contracts under FAR:
  
                    RESTRICTED RIGHTS LEGEND
  
 Use, reproduction and disclosure by the US Government is
 subject to restrictions as set forth in subparagraphs (a)
 and (c) of the Commercial Computer Software - Restricted
 Rights clause in FAR 52.227-19.
  
 Gaussian, Inc.
 340 Quinnipiac St., Bldg. 40, Wallingford CT 06492
  
  
 ---------------------------------------------------------------
 Warning -- This program may not be used in any manner that
 competes with the business of Gaussian, Inc. or will provide
 assistance to any competitor of Gaussian, Inc.  The licensee
 of this program is prohibited from giving any competitor of
 Gaussian, Inc. access to this program.  By using this program,
 the user acknowledges that Gaussian, Inc. is engaged in the
 business of creating and licensing software in the field of
 computational chemistry and represents and warrants to the
 licensee that it is not a competitor of Gaussian, Inc. and that
 it will not use this program in any manner prohibited above.
 ---------------------------------------------------------------
  

 Cite this work as:
 Gaussian 09, Revision A.02,
 M. J. Frisch, G. W. Trucks, H. B. Schlegel, G. E. Scuseria, 
 M. A. Robb, J. R. Cheeseman, G. Scalmani, V. Barone, B. Mennucci, 
 G. A. Petersson, H. Nakatsuji, M. Caricato, X. Li, H. P. Hratchian, 
 A. F. Izmaylov, J. Bloino, G. Zheng, J. L. Sonnenberg, M. Hada, 
 M. Ehara, K. Toyota, R. Fukuda, J. Hasegawa, M. Ishida, T. Nakajima, 
 Y. Honda, O. Kitao, H. Nakai, T. Vreven, J. A. Montgomery, Jr., 
 J. E. Peralta, F. Ogliaro, M. Bearpark, J. J. Heyd, E. Brothers, 
 K. N. Kudin, V. N. Staroverov, R. Kobayashi, J. Normand, 
 K. Raghavachari, A. Rendell, J. C. Burant, S. S. Iyengar, J. Tomasi, 
 M. Cossi, N. Rega, J. M. Millam, M. Klene, J. E. Knox, J. B. Cross, 
 V. Bakken, C. Adamo, J. Jaramillo, R. Gomperts, R. E. Stratmann, 
 O. Yazyev, A. J. Austin, R. Cammi, C. Pomelli, J. W. Ochterski, 
 R. L. Martin, K. Morokuma, V. G. Zakrzewski, G. A. Voth, 
 P. Salvador, J. J. Dannenberg, S. Dapprich, A. D. Daniels, 
 O. Farkas, J. B. Foresman, J. V. Ortiz, J. Cioslowski, 
 and D. J. Fox, Gaussian, Inc., Wallingford CT, 2009.
 
 ******************************************
 Gaussian 09:  IA32W-G09RevA.02 11-Jun-2009
                02-Oct-2021 
 ******************************************
 %mem=98MW
 ------------------------------
 # opt freq wb97xd/6-311+g(d,p)
 ------------------------------
 1/14=-1,18=20,19=15,26=3,38=1/1,3;
 2/9=110,12=2,17=6,18=5,40=1/2;
 3/5=4,6=6,7=111,11=2,16=1,25=1,30=1,71=1,74=-58/1,2,3;
 4//1;
 5/5=2,38=5/2;
 6/7=2,8=2,9=2,10=2,28=1/1;
 7//1,2,3,16;
 1/14=-1,18=20,19=15/3(2);
 2/9=110/2;
 99//99;
 2/9=110/2;
 3/5=4,6=6,7=111,11=2,16=1,25=1,30=1,71=1,74=-58/1,2,3;
 4/5=5,16=3/1;
 5/5=2,38=5/2;
 7//1,2,3,16;
 1/14=-1,18=20,19=15/3(-5);
 2/9=110/2;
 6/7=2,8=2,9=2,10=2,19=2,28=1/1;
 99/9=1/99;
 ------------------
 Thiazole-Be(2+)@H2
 ------------------
 Symbolic Z-matrix:
 Charge =  2 Multiplicity = 1
 C                    -0.40795   1.22617  -0.01 
 C                     0.93533   1.13835  -0.00999 
 H                    -0.38994  -2.08842   0.01001 
 H                    -0.98971   2.13896  -0.02001 
 H                     1.65209   1.94906  -0.01998 
 N                    -1.03776  -0.03186   0. 
 H                    -4.22747   0.31377  -0.42394 
 H                    -4.10747  -1.08624   0.36396 
 C                    -0.12721  -1.03669   0.01001 
 S                     1.45147  -0.50675  -0.00001 
 Be                   -2.57445  -0.21578   0.01 
 

 GradGradGradGradGradGradGradGradGradGradGradGradGradGradGradGradGradGrad
 Berny optimization.
 Initialization pass.
                           ----------------------------
                           !    Initial Parameters    !
                           ! (Angstroms and Degrees)  !
 --------------------------                            --------------------------
 ! Name  Definition              Value          Derivative Info.                !
 --------------------------------------------------------------------------------
 ! R1    R(1,2)                  1.3461         estimate D2E/DX2                !
 ! R2    R(1,4)                  1.0825         estimate D2E/DX2                !
 ! R3    R(1,6)                  1.4069         estimate D2E/DX2                !
 ! R4    R(2,5)                  1.0822         estimate D2E/DX2                !
 ! R5    R(2,10)                 1.7242         estimate D2E/DX2                !
 ! R6    R(3,9)                  1.084          estimate D2E/DX2                !
 ! R7    R(6,9)                  1.3561         estimate D2E/DX2                !
 ! R8    R(6,11)                 1.5477         estimate D2E/DX2                !
 ! R9    R(7,8)                  1.611          estimate D2E/DX2                !
 ! R10   R(7,11)                 1.7892         estimate D2E/DX2                !
 ! R11   R(8,11)                 1.7981         estimate D2E/DX2                !
 ! R12   R(9,10)                 1.6653         estimate D2E/DX2                !
 ! A1    A(2,1,4)              126.2497         estimate D2E/DX2                !
 ! A2    A(2,1,6)              112.8532         estimate D2E/DX2                !
 ! A3    A(4,1,6)              120.8967         estimate D2E/DX2                !
 ! A4    A(1,2,5)              127.7383         estimate D2E/DX2                !
 ! A5    A(1,2,10)             111.1591         estimate D2E/DX2                !
 ! A6    A(5,2,10)             121.1018         estimate D2E/DX2                !
 ! A7    A(1,6,9)              111.2257         estimate D2E/DX2                !
 ! A8    A(1,6,11)             123.4205         estimate D2E/DX2                !
 ! A9    A(9,6,11)             125.352          estimate D2E/DX2                !
 ! A10   A(3,9,6)              123.7908         estimate D2E/DX2                !
 ! A11   A(3,9,10)             122.5814         estimate D2E/DX2                !
 ! A12   A(6,9,10)             113.6222         estimate D2E/DX2                !
 ! A13   A(2,10,9)              91.1389         estimate D2E/DX2                !
 ! A14   A(6,11,7)             151.7134         estimate D2E/DX2                !
 ! A15   A(6,11,8)             154.8667         estimate D2E/DX2                !
 ! D1    D(4,1,2,5)             -0.0134         estimate D2E/DX2                !
 ! D2    D(4,1,2,10)          -179.6994         estimate D2E/DX2                !
 ! D3    D(6,1,2,5)            179.7731         estimate D2E/DX2                !
 ! D4    D(6,1,2,10)             0.087          estimate D2E/DX2                !
 ! D5    D(2,1,6,9)              0.1228         estimate D2E/DX2                !
 ! D6    D(2,1,6,11)           179.6529         estimate D2E/DX2                !
 ! D7    D(4,1,6,9)            179.9221         estimate D2E/DX2                !
 ! D8    D(4,1,6,11)            -0.5478         estimate D2E/DX2                !
 ! D9    D(1,2,10,9)            -0.2103         estimate D2E/DX2                !
 ! D10   D(5,2,10,9)          -179.9203         estimate D2E/DX2                !
 ! D11   D(1,6,9,3)           -179.4443         estimate D2E/DX2                !
 ! D12   D(1,6,9,10)            -0.2879         estimate D2E/DX2                !
 ! D13   D(11,6,9,3)             1.0365         estimate D2E/DX2                !
 ! D14   D(11,6,9,10)         -179.8071         estimate D2E/DX2                !
 ! D15   D(1,6,11,7)            31.3451         estimate D2E/DX2                !
 ! D16   D(1,6,11,8)          -153.5191         estimate D2E/DX2                !
 ! D17   D(9,6,11,7)          -149.1919         estimate D2E/DX2                !
 ! D18   D(9,6,11,8)            25.9439         estimate D2E/DX2                !
 ! D19   D(3,9,10,2)           179.4551         estimate D2E/DX2                !
 ! D20   D(6,9,10,2)             0.2871         estimate D2E/DX2                !
 --------------------------------------------------------------------------------
 Trust Radius=3.00D-01 FncErr=1.00D-07 GrdErr=1.00D-06
 Number of steps in this run=  57 maximum allowed number of steps= 100.
 GradGradGradGradGradGradGradGradGradGradGradGradGradGradGradGradGradGrad

                          Input orientation:                          
 ---------------------------------------------------------------------
 Center     Atomic      Atomic             Coordinates (Angstroms)
 Number     Number       Type             X           Y           Z
 ---------------------------------------------------------------------
      1          6           0       -0.407945    1.226169   -0.010004
      2          6           0        0.935325    1.138354   -0.009990
      3          1           0       -0.389938   -2.088416    0.010008
      4          1           0       -0.989706    2.138957   -0.020005
      5          1           0        1.652090    1.949063   -0.019981
      6          7           0       -1.037760   -0.031862    0.000002
      7          1           0       -4.227468    0.313772   -0.423935
      8          1           0       -4.107466   -1.086237    0.363955
      9          6           0       -0.127207   -1.036689    0.010005
     10         16           0        1.451473   -0.506750   -0.000009
     11          4           0       -2.574449   -0.215778    0.010004
 ---------------------------------------------------------------------
                    Distance matrix (angstroms):
                    1          2          3          4          5
     1  C    0.000000
     2  C    1.346137   0.000000
     3  H    3.314694   3.488376   0.000000
     4  H    1.082464   2.169574   4.269813   0.000000
     5  H    2.183213   1.082174   4.524601   2.648612   0.000000
     6  N    1.406915   2.294029   2.156198   2.171443   3.340622
     7  H    3.948742   5.244589   4.548126   3.738658   6.116090
     8  H    4.378758   5.524344   3.866478   4.502192   6.521728
     9  C    2.280294   2.420782   1.084047   3.290826   3.475847
    10  S    2.541760   1.724203   2.427460   3.599933   2.464075
    11  Be   2.602566   3.761992   2.877301   2.838501   4.748796
                    6          7          8          9         10
     6  N    0.000000
     7  H    3.236267   0.000000
     8  H    3.266078   1.610961   0.000000
     9  C    1.356055   4.338685   3.996273   0.000000
    10  S    2.534127   5.753550   5.600900   1.665283   0.000000
    11  Be   1.547688   1.789189   1.798088   2.581257   4.036436
                   11
    11  Be   0.000000
 Stoichiometry    C3H5BeNS(2+)
 Framework group  C1[X(C3H5BeNS)]
 Deg. of freedom    27
 Full point group                 C1      NOp   1
 Largest Abelian subgroup         C1      NOp   1
 Largest concise Abelian subgroup C1      NOp   1
                         Standard orientation:                         
 ---------------------------------------------------------------------
 Center     Atomic      Atomic             Coordinates (Angstroms)
 Number     Number       Type             X           Y           Z
 ---------------------------------------------------------------------
      1          6           0        0.409420    1.225574   -0.017752
      2          6           0       -0.933953    1.139416   -0.014347
      3          1           0        0.387426   -2.088704    0.030007
      4          1           0        0.992284    2.137665   -0.027113
      5          1           0       -1.649735    1.951034   -0.020061
      6          7           0        1.037718   -0.033167   -0.002805
      7          1           0        4.228357    0.317166    0.410122
      8          1           0        4.105710   -1.098505   -0.348844
      9          6           0        0.125952   -1.036876    0.008832
     10         16           0       -1.452079   -0.504917    0.009922
     11          4           0        2.574172   -0.219124   -0.010904
 ---------------------------------------------------------------------
 Rotational constants (GHZ):      7.2830594      2.6059354      1.9236552
 Standard basis: 6-311+G(d,p) (5D, 7F)
 There are   170 symmetry adapted basis functions of A   symmetry.
 Integral buffers will be    262144 words long.
 Raffenetti 2 integral format.
 Two-electron integral symmetry is turned on.
   170 basis functions,   270 primitive gaussians,   176 cartesian basis functions
    24 alpha electrons       24 beta electrons
       nuclear repulsion energy       251.2380691497 Hartrees.
 NAtoms=   11 NActive=   11 NUniq=   11 SFac= 7.50D-01 NAtFMM=   80 NAOKFM=F Big=F
 Nuclear repulsion after empirical dispersion term =      251.2349683714 Hartrees.
 One-electron integrals computed using PRISM.
 NBasis=   170 RedAO= T  NBF=   170
 NBsUse=   170 1.00D-06 NBFU=   170
 Harris functional with IExCor= 4639 diagonalized for initial guess.
 ExpMin= 2.07D-02 ExpMax= 9.34D+04 ExpMxC= 3.17D+03 IAcc=3 IRadAn=         0 AccDes= 0.00D+00
 HarFok:  IExCor= 4639 AccDes= 0.00D+00 IRadAn=         0 IDoV= 1
 ScaDFX=  1.000000  1.000000  1.000000  1.000000
 FoFCou: FMM=F IPFlag=           0 FMFlag=      100000 FMFlg1=           0
         NFxFlg=           0 DoJE=T BraDBF=F KetDBF=T FulRan=T
         Omega=  0.000000  0.000000  1.000000  0.000000  0.000000 ICntrl=     500 IOpCl=  0
         NMat0=    1 NMatS0=    1 NMatT0=    0 NMatD0=    1 NMtDS0=    0 NMtDT0=    0
         I1Cent=           4 NGrid=           0.
 Petite list used in FoFCou.
 Initial guess orbital symmetries:
       Occupied  (A) (A) (A) (A) (A) (A) (A) (A) (A) (A) (A) (A)
                 (A) (A) (A) (A) (A) (A) (A) (A) (A) (A) (A) (A)
       Virtual   (A) (A) (A) (A) (A) (A) (A) (A) (A) (A) (A) (A)
                 (A) (A) (A) (A) (A) (A) (A) (A) (A) (A) (A) (A)
                 (A) (A) (A) (A) (A) (A) (A) (A) (A) (A) (A) (A)
                 (A) (A) (A) (A) (A) (A) (A) (A) (A) (A) (A) (A)
                 (A) (A) (A) (A) (A) (A) (A) (A) (A) (A) (A) (A)
                 (A) (A) (A) (A) (A) (A) (A) (A) (A) (A) (A) (A)
                 (A) (A) (A) (A) (A) (A) (A) (A) (A) (A) (A) (A)
                 (A) (A) (A) (A) (A) (A) (A) (A) (A) (A) (A) (A)
                 (A) (A) (A) (A) (A) (A) (A) (A) (A) (A) (A) (A)
                 (A) (A) (A) (A) (A) (A) (A) (A) (A) (A) (A) (A)
                 (A) (A) (A) (A) (A) (A) (A) (A) (A) (A) (A) (A)
                 (A) (A) (A) (A) (A) (A) (A) (A) (A) (A) (A) (A)
                 (A) (A)
 The electronic state of the initial guess is 1-A.
 Requested convergence on RMS density matrix=1.00D-08 within 128 cycles.
 Requested convergence on MAX density matrix=1.00D-06.
 Requested convergence on             energy=1.00D-06.
 No special actions if energy rises.
 FoFJK:  IHMeth= 1 ICntrl=     0 DoSepK=T KAlg= 1 I1Cent= 0 FoldK=F
 FoFJK:  IHMeth= 1 ICntrl=     0 DoSepK=T KAlg= 1 I1Cent= 0 FoldK=F
 FoFJK:  IHMeth= 1 ICntrl=     0 DoSepK=T KAlg= 1 I1Cent= 0 FoldK=F
 FoFJK:  IHMeth= 1 ICntrl=     0 DoSepK=T KAlg= 1 I1Cent= 0 FoldK=F
 FoFJK:  IHMeth= 1 ICntrl=     0 DoSepK=T KAlg= 1 I1Cent= 0 FoldK=F
 FoFJK:  IHMeth= 1 ICntrl=     0 DoSepK=T KAlg= 1 I1Cent= 0 FoldK=F
 FoFJK:  IHMeth= 1 ICntrl=     0 DoSepK=T KAlg= 1 I1Cent= 0 FoldK=F
 FoFJK:  IHMeth= 1 ICntrl=     0 DoSepK=T KAlg= 1 I1Cent= 0 FoldK=F
 FoFJK:  IHMeth= 1 ICntrl=     0 DoSepK=T KAlg= 1 I1Cent= 0 FoldK=F
 FoFJK:  IHMeth= 1 ICntrl=     0 DoSepK=T KAlg= 1 I1Cent= 0 FoldK=F
 FoFJK:  IHMeth= 1 ICntrl=     0 DoSepK=T KAlg= 1 I1Cent= 0 FoldK=F
 FoFJK:  IHMeth= 1 ICntrl=     0 DoSepK=T KAlg= 1 I1Cent= 0 FoldK=F
 FoFJK:  IHMeth= 1 ICntrl=     0 DoSepK=T KAlg= 1 I1Cent= 0 FoldK=F
 FoFJK:  IHMeth= 1 ICntrl=     0 DoSepK=T KAlg= 1 I1Cent= 0 FoldK=F
 FoFJK:  IHMeth= 1 ICntrl=     0 DoSepK=T KAlg= 1 I1Cent= 0 FoldK=F
 FoFJK:  IHMeth= 1 ICntrl=     0 DoSepK=T KAlg= 1 I1Cent= 0 FoldK=F
 SCF Done:  E(RwB97XD) =  -584.163838390     A.U. after   16 cycles
             Convg  =    0.2591D-08             -V/T =  2.0024

 **********************************************************************

            Population analysis using the SCF density.

 **********************************************************************

 Orbital symmetries:
       Occupied  (A) (A) (A) (A) (A) (A) (A) (A) (A) (A) (A) (A)
                 (A) (A) (A) (A) (A) (A) (A) (A) (A) (A) (A) (A)
       Virtual   (A) (A) (A) (A) (A) (A) (A) (A) (A) (A) (A) (A)
                 (A) (A) (A) (A) (A) (A) (A) (A) (A) (A) (A) (A)
                 (A) (A) (A) (A) (A) (A) (A) (A) (A) (A) (A) (A)
                 (A) (A) (A) (A) (A) (A) (A) (A) (A) (A) (A) (A)
                 (A) (A) (A) (A) (A) (A) (A) (A) (A) (A) (A) (A)
                 (A) (A) (A) (A) (A) (A) (A) (A) (A) (A) (A) (A)
                 (A) (A) (A) (A) (A) (A) (A) (A) (A) (A) (A) (A)
                 (A) (A) (A) (A) (A) (A) (A) (A) (A) (A) (A) (A)
                 (A) (A) (A) (A) (A) (A) (A) (A) (A) (A) (A) (A)
                 (A) (A) (A) (A) (A) (A) (A) (A) (A) (A) (A) (A)
                 (A) (A) (A) (A) (A) (A) (A) (A) (A) (A) (A) (A)
                 (A) (A) (A) (A) (A) (A) (A) (A) (A) (A) (A) (A)
                 (A) (A)
 The electronic state is 1-A.
 Alpha  occ. eigenvalues --  -89.41560 -14.86072 -10.72957 -10.67970 -10.65797
 Alpha  occ. eigenvalues --   -8.45478  -6.40251  -6.39815  -6.39732  -4.63867
 Alpha  occ. eigenvalues --   -1.45641  -1.27447  -1.21350  -1.05581  -1.03031
 Alpha  occ. eigenvalues --   -0.99932  -0.92545  -0.88343  -0.88302  -0.85847
 Alpha  occ. eigenvalues --   -0.83826  -0.78702  -0.73386  -0.68509
 Alpha virt. eigenvalues --   -0.51035  -0.35590  -0.32842  -0.30923  -0.26816
 Alpha virt. eigenvalues --   -0.24570  -0.22548  -0.21702  -0.17902  -0.17351
 Alpha virt. eigenvalues --   -0.16266  -0.15940  -0.15206  -0.13230  -0.12996
 Alpha virt. eigenvalues --   -0.12304  -0.11807  -0.11341  -0.10045  -0.08582
 Alpha virt. eigenvalues --   -0.07901  -0.07713  -0.06378  -0.06133  -0.05762
 Alpha virt. eigenvalues --   -0.04518  -0.04293  -0.03390  -0.02774  -0.01132
 Alpha virt. eigenvalues --   -0.00307   0.00442   0.00721   0.02007   0.02676
 Alpha virt. eigenvalues --    0.02787   0.03913   0.04701   0.06638   0.07358
 Alpha virt. eigenvalues --    0.08504   0.12898   0.13764   0.14486   0.16532
 Alpha virt. eigenvalues --    0.17226   0.19497   0.20351   0.21435   0.24376
 Alpha virt. eigenvalues --    0.26793   0.27141   0.29143   0.31553   0.32567
 Alpha virt. eigenvalues --    0.34300   0.37566   0.38257   0.43264   0.44391
 Alpha virt. eigenvalues --    0.46630   0.47642   0.48405   0.49030   0.51993
 Alpha virt. eigenvalues --    0.55841   0.57565   0.58837   0.61125   0.63118
 Alpha virt. eigenvalues --    0.65309   0.68467   0.68913   0.71133   0.72501
 Alpha virt. eigenvalues --    0.76707   0.80440   0.80780   0.81135   0.86582
 Alpha virt. eigenvalues --    0.89336   0.91051   0.98311   1.01762   1.02493
 Alpha virt. eigenvalues --    1.04676   1.09965   1.11066   1.25579   1.28800
 Alpha virt. eigenvalues --    1.31689   1.34847   1.36662   1.36809   1.42049
 Alpha virt. eigenvalues --    1.43595   1.45390   1.47957   1.51576   1.54392
 Alpha virt. eigenvalues --    1.56793   1.56819   1.58719   1.67082   1.70089
 Alpha virt. eigenvalues --    1.72604   1.81642   1.84839   1.88335   1.93798
 Alpha virt. eigenvalues --    2.08470   2.10731   2.11680   2.17067   2.21144
 Alpha virt. eigenvalues --    2.27545   2.31008   2.34742   2.42458   2.50504
 Alpha virt. eigenvalues --    2.51218   2.51627   2.52040   2.55169   2.57730
 Alpha virt. eigenvalues --    2.66984   2.89494   2.97705   3.13215   3.27457
 Alpha virt. eigenvalues --    3.31514   3.53987   3.60407   3.81831   4.18821
 Alpha virt. eigenvalues --    4.64990   7.72476   8.00131  17.05101  17.20687
 Alpha virt. eigenvalues --   17.26646  23.46477  23.55094  23.97179  35.26468
 Alpha virt. eigenvalues --  188.97254
          Condensed to atoms (all electrons):
              1          2          3          4          5          6
     1  C    5.240558   0.422451   0.011671   0.385938  -0.016355   0.219020
     2  C    0.422451   5.322067  -0.006547   0.021971   0.374607  -0.065172
     3  H    0.011671  -0.006547   0.354083   0.000059  -0.000004  -0.022953
     4  H    0.385938   0.021971   0.000059   0.393073  -0.001960  -0.056436
     5  H   -0.016355   0.374607  -0.000004  -0.001960   0.333031   0.010896
     6  N    0.219020  -0.065172  -0.022953  -0.056436   0.010896   6.451990
     7  H   -0.007729   0.005249   0.000024   0.000028   0.000000   0.067503
     8  H   -0.005462   0.003604   0.000095   0.000018   0.000000   0.062808
     9  C   -0.265266   0.171106   0.366112   0.019090  -0.008910   0.261470
    10  S    0.250612   0.089340   0.010060  -0.008468   0.005988  -0.134059
    11  Be   0.022664  -0.164049   0.001903   0.002598  -0.000464   0.101264
              7          8          9         10         11
     1  C   -0.007729  -0.005462  -0.265266   0.250612   0.022664
     2  C    0.005249   0.003604   0.171106   0.089340  -0.164049
     3  H    0.000024   0.000095   0.366112   0.010060   0.001903
     4  H    0.000028   0.000018   0.019090  -0.008468   0.002598
     5  H    0.000000   0.000000  -0.008910   0.005988  -0.000464
     6  N    0.067503   0.062808   0.261470  -0.134059   0.101264
     7  H    0.388555   0.086492   0.002819  -0.001775   0.118011
     8  H    0.086492   0.381039   0.002866  -0.002047   0.120852
     9  C    0.002819   0.002866   5.819359   0.086683  -0.218676
    10  S   -0.001775  -0.002047   0.086683  15.238513   0.031912
    11  Be   0.118011   0.120852  -0.218676   0.031912   3.374828
 Mulliken atomic charges:
              1
     1  C   -0.258103
     2  C   -0.174625
     3  H    0.285498
     4  H    0.244088
     5  H    0.303169
     6  N    0.103669
     7  H    0.340823
     8  H    0.349735
     9  C   -0.236654
    10  S    0.433242
    11  Be   0.609159
 Sum of Mulliken atomic charges =   2.00000
 Mulliken charges with hydrogens summed into heavy atoms:
              1
     1  C   -0.014015
     2  C    0.128544
     6  N    0.103669
     9  C    0.048844
    10  S    0.433242
    11  Be   1.299717
 Sum of Mulliken charges with hydrogens summed into heavy atoms =   2.00000
 Electronic spatial extent (au):  <R**2>=            567.3973
 Charge=              2.0000 electrons
 Dipole moment (field-independent basis, Debye):
    X=             16.0903    Y=             -1.3562    Z=              0.0138  Tot=             16.1473
 Quadrupole moment (field-independent basis, Debye-Ang):
   XX=             39.9753   YY=            -21.9444   ZZ=            -38.7116
   XY=             -7.0894   XZ=              0.2133   YZ=              0.9829
 Traceless Quadrupole moment (field-independent basis, Debye-Ang):
   XX=             46.8688   YY=            -15.0508   ZZ=            -31.8180
   XY=             -7.0894   XZ=              0.2133   YZ=              0.9829
 Octapole moment (field-independent basis, Debye-Ang**2):
  XXX=            243.2489  YYY=             -0.5472  ZZZ=              0.1050  XYY=              9.9022
  XXY=            -16.8615  XXZ=              1.8380  XZZ=              2.2398  YZZ=             -1.9233
  YYZ=             -0.9099  XYZ=              5.0399
 Hexadecapole moment (field-independent basis, Debye-Ang**3):
 XXXX=            502.1075 YYYY=           -154.8787 ZZZZ=            -42.7491 XXXY=            -87.2864
 XXXZ=             10.8607 YYYX=            -17.7083 YYYZ=              0.5622 ZZZX=              0.0806
 ZZZY=              0.5645 XXYY=            -55.1750 XXZZ=            -83.6718 YYZZ=            -46.7436
 XXYZ=             21.2601 YYXZ=             -3.7445 ZZXY=              0.0391
 N-N= 2.512349683714D+02 E-N=-1.863365780134D+03  KE= 5.827460214567D+02
 Calling FoFJK, ICntrl=      2127 FMM=F ISym2X=0 I1Cent= 0 IOpClX= 0 NMat=1 NMatS=1 NMatT=0.
 FoFJK:  IHMeth= 1 ICntrl=  2127 DoSepK=T KAlg= 1 I1Cent= 0 FoldK=F
 ***** Axes restored to original set *****
 -------------------------------------------------------------------
 Center     Atomic                   Forces (Hartrees/Bohr)
 Number     Number              X              Y              Z
 -------------------------------------------------------------------
      1        6          -0.000568975   -0.001947548    0.000578411
      2        6           0.000658282    0.000182144   -0.000410983
      3        1           0.000037124    0.000212438    0.000256154
      4        1           0.000155099   -0.000182776    0.000185359
      5        1          -0.000049838   -0.000178145   -0.000000910
      6        7           0.004093255    0.000191253    0.000431963
      7        1           0.005579328   -0.058153873    0.031885056
      8        1          -0.004088061    0.058492077   -0.031773877
      9        6          -0.001791683    0.001802709   -0.001594354
     10       16           0.000739760    0.000378412    0.000664703
     11        4          -0.004764292   -0.000796690   -0.000221523
 -------------------------------------------------------------------
 Cartesian Forces:  Max     0.058492077 RMS     0.016452956

 GradGradGradGradGradGradGradGradGradGradGradGradGradGradGradGradGradGrad
 Berny optimization.
 Internal  Forces:  Max     0.062913475 RMS     0.009445579
 Search for a local minimum.
 Step number   1 out of a maximum of   57
 All quantities printed in internal units (Hartrees-Bohrs-Radians)
 Mixed Optimization -- RFO/linear search
 Second derivative matrix not updated -- first step.
     Eigenvalues ---    0.01878   0.02061   0.02235   0.02277   0.02419
     Eigenvalues ---    0.02560   0.03443   0.03445   0.05334   0.06182
     Eigenvalues ---    0.06503   0.15998   0.16000   0.16000   0.16000
     Eigenvalues ---    0.22477   0.23496   0.24999   0.27849   0.32266
     Eigenvalues ---    0.35510   0.35698   0.35733   0.38577   0.43276
     Eigenvalues ---    0.50336   0.545581000.000001000.000001000.00000
     Eigenvalues --- 1000.000001000.000001000.000001000.000001000.00000
     Eigenvalues --- 1000.000001000.000001000.000001000.000001000.00000
     Eigenvalues --- 1000.000001000.000001000.000001000.000001000.00000
     Eigenvalues --- 1000.000001000.00000
 RFO step:  Lambda=-4.30294248D-02 EMin= 1.87764016D-02
 Linear search not attempted -- first point.
 Maximum step size (   0.300) exceeded in Quadratic search.
    -- Step size scaled by   0.451
 Iteration  1 RMS(Cart)=  0.02241775 RMS(Int)=  0.01305620
 Iteration  2 RMS(Cart)=  0.00948308 RMS(Int)=  0.00008551
 Iteration  3 RMS(Cart)=  0.00006423 RMS(Int)=  0.00005464
 Iteration  4 RMS(Cart)=  0.00000000 RMS(Int)=  0.00005464
 Variable       Old X    -DE/DX   Delta X   Delta X   Delta X     New X
                                 (Linear)    (Quad)   (Total)
    R1        2.54383   0.00037   0.00000   0.00032   0.00032   2.54415
    R2        2.04556  -0.00024   0.00000  -0.00026  -0.00026   2.04530
    R3        2.65868  -0.00133   0.00000  -0.00130  -0.00130   2.65739
    R4        2.04501  -0.00016   0.00000  -0.00018  -0.00018   2.04483
    R5        3.25827  -0.00065   0.00000  -0.00065  -0.00065   3.25762
    R6        2.04855  -0.00022   0.00000  -0.00025  -0.00025   2.04830
    R7        2.56257  -0.00188   0.00000  -0.00154  -0.00154   2.56103
    R8        2.92471   0.00330   0.00000   0.00463   0.00463   2.92933
    R9        3.04428  -0.06291   0.00000  -0.29177  -0.29186   2.75242
   R10        3.38108  -0.00213   0.00000  -0.01573  -0.01569   3.36539
   R11        3.39789  -0.00255   0.00000  -0.01785  -0.01781   3.38008
   R12        3.14693   0.00079   0.00000   0.00080   0.00080   3.14772
    A1        2.20347  -0.00037   0.00000  -0.00059  -0.00059   2.20288
    A2        1.96966   0.00068   0.00000   0.00108   0.00108   1.97074
    A3        2.11005  -0.00032   0.00000  -0.00048  -0.00048   2.10956
    A4        2.22945   0.00027   0.00000   0.00040   0.00040   2.22986
    A5        1.94009  -0.00040   0.00000  -0.00048  -0.00049   1.93961
    A6        2.11363   0.00013   0.00000   0.00009   0.00009   2.11372
    A7        1.94125  -0.00040   0.00000  -0.00092  -0.00092   1.94033
    A8        2.15409   0.00033   0.00000   0.00067   0.00067   2.15476
    A9        2.18781   0.00007   0.00000   0.00025   0.00025   2.18806
   A10        2.16056  -0.00036   0.00000  -0.00049  -0.00050   2.16006
   A11        2.13945  -0.00035   0.00000  -0.00047  -0.00047   2.13898
   A12        1.98308   0.00071   0.00000   0.00101   0.00100   1.98408
   A13        1.59067  -0.00059   0.00000  -0.00066  -0.00066   1.59001
   A14        2.64790   0.01007   0.00000   0.04576   0.04550   2.69340
   A15        2.70293   0.01003   0.00000   0.04566   0.04541   2.74834
    D1       -0.00023   0.00000   0.00000   0.00000   0.00000  -0.00023
    D2       -3.13635  -0.00028   0.00000  -0.00189  -0.00189  -3.13823
    D3        3.13763   0.00006   0.00000   0.00034   0.00034   3.13798
    D4        0.00152  -0.00022   0.00000  -0.00155  -0.00155  -0.00003
    D5        0.00214  -0.00003   0.00000  -0.00024  -0.00024   0.00191
    D6        3.13553  -0.00005   0.00000  -0.00033  -0.00033   3.13520
    D7        3.14023   0.00002   0.00000   0.00008   0.00008   3.14032
    D8       -0.00956   0.00000   0.00000  -0.00001  -0.00001  -0.00957
    D9       -0.00367   0.00033   0.00000   0.00226   0.00226  -0.00141
   D10       -3.14020   0.00007   0.00000   0.00052   0.00051  -3.13969
   D11       -3.13189  -0.00017   0.00000  -0.00119  -0.00119  -3.13309
   D12       -0.00503   0.00029   0.00000   0.00201   0.00201  -0.00302
   D13        0.01809  -0.00016   0.00000  -0.00110  -0.00110   0.01699
   D14       -3.13823   0.00030   0.00000   0.00210   0.00210  -3.13612
   D15        0.54708   0.00075   0.00000   0.00499   0.00498   0.55206
   D16       -2.67941   0.00057   0.00000   0.00266   0.00266  -2.67675
   D17       -2.60389   0.00072   0.00000   0.00487   0.00487  -2.59902
   D18        0.45281   0.00055   0.00000   0.00255   0.00255   0.45536
   D19        3.13208   0.00011   0.00000   0.00071   0.00071   3.13279
   D20        0.00501  -0.00035   0.00000  -0.00244  -0.00245   0.00256
         Item               Value     Threshold  Converged?
 Maximum Force            0.062913     0.000450     NO 
 RMS     Force            0.009446     0.000300     NO 
 Maximum Displacement     0.134519     0.001800     NO 
 RMS     Displacement     0.031861     0.001200     NO 
 Predicted change in Energy=-1.696191D-02
 GradGradGradGradGradGradGradGradGradGradGradGradGradGradGradGradGradGrad

                          Input orientation:                          
 ---------------------------------------------------------------------
 Center     Atomic      Atomic             Coordinates (Angstroms)
 Number     Number       Type             X           Y           Z
 ---------------------------------------------------------------------
      1          6           0       -0.402614    1.225824   -0.010235
      2          6           0        0.940903    1.139230   -0.009975
      3          1           0       -0.383989   -2.086701    0.008974
      4          1           0       -0.984593    2.138313   -0.019649
      5          1           0        1.657187    1.950244   -0.019145
      6          7           0       -1.032326   -0.031495   -0.000946
      7          1           0       -4.245693    0.242588   -0.387645
      8          1           0       -4.136670   -1.020591    0.329249
      9          6           0       -0.121558   -1.035035    0.008489
     10         16           0        1.457656   -0.505311    0.001852
     11          4           0       -2.571353   -0.216483    0.009081
 ---------------------------------------------------------------------
                    Distance matrix (angstroms):
                    1          2          3          4          5
     1  C    0.000000
     2  C    1.346304   0.000000
     3  H    3.312633   3.487453   0.000000
     4  H    1.082324   2.169284   4.267586   0.000000
     5  H    2.183493   1.082077   4.523728   2.648465   0.000000
     6  N    1.406228   2.294409   2.155066   2.170414   3.340823
     7  H    3.984777   5.277061   4.527212   3.789983   6.155962
     8  H    4.370904   5.528258   3.914304   4.476158   6.520430
     9  C    2.278339   2.420040   1.083915   3.288732   3.475139
    10  S    2.541177   1.723859   2.427448   3.599138   2.463738
    11  Be   2.604622   3.764872   2.877894   2.839665   4.751426
                    6          7          8          9         10
     6  N    0.000000
     7  H    3.248135   0.000000
     8  H    3.274796   1.456517   0.000000
     9  C    1.355241   4.335635   4.027930   0.000000
    10  S    2.534664   5.765349   5.627538   1.665704   0.000000
    11  Be   1.550137   1.780885   1.788662   2.582929   4.039355
                   11
    11  Be   0.000000
 Stoichiometry    C3H5BeNS(2+)
 Framework group  C1[X(C3H5BeNS)]
 Deg. of freedom    27
 Full point group                 C1      NOp   1
 Largest Abelian subgroup         C1      NOp   1
 Largest concise Abelian subgroup C1      NOp   1
                         Standard orientation:                         
 ---------------------------------------------------------------------
 Center     Atomic      Atomic             Coordinates (Angstroms)
 Number     Number       Type             X           Y           Z
 ---------------------------------------------------------------------
      1          6           0        0.406762    1.225179   -0.014690
      2          6           0       -0.936738    1.138400   -0.011148
      3          1           0        0.388684   -2.087151    0.026332
      4          1           0        0.988596    2.137772   -0.022826
      5          1           0       -1.653148    1.949343   -0.015530
      6          7           0        1.036677   -0.032011   -0.002173
      7          1           0        4.250632    0.249519    0.374150
      8          1           0        4.140643   -1.026495   -0.319488
      9          6           0        0.126070   -1.035688    0.008141
     10         16           0       -1.453224   -0.506159    0.007770
     11          4           0        2.575718   -0.216928   -0.011390
 ---------------------------------------------------------------------
 Rotational constants (GHZ):      7.3144528      2.5977023      1.9205852
 Standard basis: 6-311+G(d,p) (5D, 7F)
 There are   170 symmetry adapted basis functions of A   symmetry.
 Integral buffers will be    262144 words long.
 Raffenetti 2 integral format.
 Two-electron integral symmetry is turned on.
   170 basis functions,   270 primitive gaussians,   176 cartesian basis functions
    24 alpha electrons       24 beta electrons
       nuclear repulsion energy       251.2439604110 Hartrees.
 NAtoms=   11 NActive=   11 NUniq=   11 SFac= 7.50D-01 NAtFMM=   80 NAOKFM=F Big=F
 Nuclear repulsion after empirical dispersion term =      251.2408882599 Hartrees.
 One-electron integrals computed using PRISM.
 NBasis=   170 RedAO= T  NBF=   170
 NBsUse=   170 1.00D-06 NBFU=   170
 Initial guess read from the read-write file.
 B after Tr=     0.000000    0.000000    0.000000
         Rot=    1.000000    0.000000    0.000000    0.000000 Ang=   0.00 deg.
 Initial guess orbital symmetries:
       Occupied  (A) (A) (A) (A) (A) (A) (A) (A) (A) (A) (A) (A)
                 (A) (A) (A) (A) (A) (A) (A) (A) (A) (A) (A) (A)
       Virtual   (A) (A) (A) (A) (A) (A) (A) (A) (A) (A) (A) (A)
                 (A) (A) (A) (A) (A) (A) (A) (A) (A) (A) (A) (A)
                 (A) (A) (A) (A) (A) (A) (A) (A) (A) (A) (A) (A)
                 (A) (A) (A) (A) (A) (A) (A) (A) (A) (A) (A) (A)
                 (A) (A) (A) (A) (A) (A) (A) (A) (A) (A) (A) (A)
                 (A) (A) (A) (A) (A) (A) (A) (A) (A) (A) (A) (A)
                 (A) (A) (A) (A) (A) (A) (A) (A) (A) (A) (A) (A)
                 (A) (A) (A) (A) (A) (A) (A) (A) (A) (A) (A) (A)
                 (A) (A) (A) (A) (A) (A) (A) (A) (A) (A) (A) (A)
                 (A) (A) (A) (A) (A) (A) (A) (A) (A) (A) (A) (A)
                 (A) (A) (A) (A) (A) (A) (A) (A) (A) (A) (A) (A)
                 (A) (A) (A) (A) (A) (A) (A) (A) (A) (A) (A) (A)
                 (A) (A)
 Harris functional with IExCor= 4639 diagonalized for initial guess.
 ExpMin= 2.07D-02 ExpMax= 9.34D+04 ExpMxC= 3.17D+03 IAcc=3 IRadAn=         0 AccDes= 0.00D+00
 HarFok:  IExCor= 4639 AccDes= 0.00D+00 IRadAn=         0 IDoV= 1
 ScaDFX=  1.000000  1.000000  1.000000  1.000000
 FoFCou: FMM=F IPFlag=           0 FMFlag=      100000 FMFlg1=           0
         NFxFlg=           0 DoJE=T BraDBF=F KetDBF=T FulRan=T
         Omega=  0.000000  0.000000  1.000000  0.000000  0.000000 ICntrl=     500 IOpCl=  0
         NMat0=    1 NMatS0=    1 NMatT0=    0 NMatD0=    1 NMtDS0=    0 NMtDT0=    0
         I1Cent=           4 NGrid=           0.
 Petite list used in FoFCou.
 Requested convergence on RMS density matrix=1.00D-08 within 128 cycles.
 Requested convergence on MAX density matrix=1.00D-06.
 Requested convergence on             energy=1.00D-06.
 No special actions if energy rises.
 FoFJK:  IHMeth= 1 ICntrl=     0 DoSepK=T KAlg= 1 I1Cent= 0 FoldK=F
 FoFJK:  IHMeth= 1 ICntrl=     0 DoSepK=T KAlg= 1 I1Cent= 0 FoldK=F
 FoFJK:  IHMeth= 1 ICntrl=     0 DoSepK=T KAlg= 1 I1Cent= 0 FoldK=F
 FoFJK:  IHMeth= 1 ICntrl=     0 DoSepK=T KAlg= 1 I1Cent= 0 FoldK=F
 FoFJK:  IHMeth= 1 ICntrl=     0 DoSepK=T KAlg= 1 I1Cent= 0 FoldK=F
 FoFJK:  IHMeth= 1 ICntrl=     0 DoSepK=T KAlg= 1 I1Cent= 0 FoldK=F
 FoFJK:  IHMeth= 1 ICntrl=     0 DoSepK=T KAlg= 1 I1Cent= 0 FoldK=F
 FoFJK:  IHMeth= 1 ICntrl=     0 DoSepK=T KAlg= 1 I1Cent= 0 FoldK=F
 FoFJK:  IHMeth= 1 ICntrl=     0 DoSepK=T KAlg= 1 I1Cent= 0 FoldK=F
 FoFJK:  IHMeth= 1 ICntrl=     0 DoSepK=T KAlg= 1 I1Cent= 0 FoldK=F
 FoFJK:  IHMeth= 1 ICntrl=     0 DoSepK=T KAlg= 1 I1Cent= 0 FoldK=F
 FoFJK:  IHMeth= 1 ICntrl=     0 DoSepK=T KAlg= 1 I1Cent= 0 FoldK=F
 FoFJK:  IHMeth= 1 ICntrl=     0 DoSepK=T KAlg= 1 I1Cent= 0 FoldK=F
 SCF Done:  E(RwB97XD) =  -584.184113411     A.U. after   13 cycles
             Convg  =    0.3073D-08             -V/T =  2.0024
 Calling FoFJK, ICntrl=      2127 FMM=F ISym2X=0 I1Cent= 0 IOpClX= 0 NMat=1 NMatS=1 NMatT=0.
 FoFJK:  IHMeth= 1 ICntrl=  2127 DoSepK=T KAlg= 1 I1Cent= 0 FoldK=F
 ***** Axes restored to original set *****
 -------------------------------------------------------------------
 Center     Atomic                   Forces (Hartrees/Bohr)
 Number     Number              X              Y              Z
 -------------------------------------------------------------------
      1        6          -0.000422567   -0.000923530    0.000346110
      2        6           0.000382219    0.000023542   -0.000227180
      3        1           0.000061357    0.000086311    0.000239514
      4        1           0.000116903   -0.000053841    0.000142736
      5        1          -0.000054277   -0.000090324    0.000034279
      6        7           0.002645660    0.000040139    0.000401252
      7        1           0.006809274   -0.063104918    0.035189249
      8        1          -0.003796154    0.063579407   -0.035052580
      9        6          -0.001291292    0.000841140   -0.001130031
     10       16           0.000358421    0.000315099    0.000352853
     11        4          -0.004809544   -0.000713027   -0.000296202
 -------------------------------------------------------------------
 Cartesian Forces:  Max     0.063579407 RMS     0.017912816

 GradGradGradGradGradGradGradGradGradGradGradGradGradGradGradGradGradGrad
 Berny optimization.
 Using GEDIIS/GDIIS optimizer.
 Internal  Forces:  Max     0.068455822 RMS     0.010254290
 Search for a local minimum.
 Step number   2 out of a maximum of   57
 All quantities printed in internal units (Hartrees-Bohrs-Radians)
 Mixed Optimization -- RFO/linear search
 Update second derivatives using D2CorX and points    1    2
 DE= -2.03D-02 DEPred=-1.70D-02 R= 1.20D+00
 SS=  1.41D+00  RLast= 3.00D-01 DXNew= 5.0454D-01 9.0000D-01
 Trust test= 1.20D+00 RLast= 3.00D-01 DXMaxT set to 5.05D-01
 Use linear search instead of GDIIS.
     Eigenvalues ---   -0.01908   0.01876   0.02060   0.02235   0.02274
     Eigenvalues ---    0.02419   0.02560   0.03436   0.03445   0.06175
     Eigenvalues ---    0.06366   0.15998   0.16000   0.16000   0.16000
     Eigenvalues ---    0.22471   0.23438   0.24998   0.27684   0.32264
     Eigenvalues ---    0.35509   0.35697   0.35733   0.38564   0.43243
     Eigenvalues ---    0.50285   0.545561000.000001000.000001000.00000
     Eigenvalues --- 1000.000001000.000001000.000001000.000001000.00000
     Eigenvalues --- 1000.000001000.000001000.000001000.000001000.00000
     Eigenvalues --- 1000.000001000.000001000.000001000.000001000.00000
     Eigenvalues --- 1000.000001000.00000
 RFO step:  Lambda=-8.03919827D-02 EMin=-1.90817034D-02
 Skip linear search -- no minimum in search direction.
 Maximum step size (   0.505) exceeded in Quadratic search.
    -- Step size scaled by   0.504
 Iteration  1 RMS(Cart)=  0.02249774 RMS(Int)=  0.04140950
 Iteration  2 RMS(Cart)=  0.02202322 RMS(Int)=  0.01093616
 Iteration  3 RMS(Cart)=  0.00778179 RMS(Int)=  0.00011235
 Iteration  4 RMS(Cart)=  0.00004245 RMS(Int)=  0.00010314
 Iteration  5 RMS(Cart)=  0.00000000 RMS(Int)=  0.00010314
 Variable       Old X    -DE/DX   Delta X   Delta X   Delta X     New X
                                 (Linear)    (Quad)   (Total)
    R1        2.54415   0.00015   0.00000  -0.00004  -0.00004   2.54410
    R2        2.04530  -0.00011   0.00000   0.00002   0.00002   2.04531
    R3        2.65739  -0.00067   0.00000  -0.00026  -0.00026   2.65712
    R4        2.04483  -0.00010   0.00000  -0.00013  -0.00013   2.04470
    R5        3.25762  -0.00038   0.00000  -0.00039  -0.00039   3.25723
    R6        2.04830  -0.00010   0.00000  -0.00001  -0.00001   2.04830
    R7        2.56103  -0.00115   0.00000  -0.00109  -0.00109   2.55994
    R8        2.92933   0.00181   0.00000   0.00154   0.00154   2.93087
    R9        2.75242  -0.06846   0.00000  -0.49115  -0.49130   2.26112
   R10        3.36539  -0.00288   0.00000  -0.02858  -0.02853   3.33685
   R11        3.38008  -0.00330   0.00000  -0.03130  -0.03125   3.34883
   R12        3.14772   0.00047   0.00000   0.00046   0.00046   3.14819
    A1        2.20288  -0.00020   0.00000  -0.00024  -0.00024   2.20264
    A2        1.97074   0.00026   0.00000  -0.00041  -0.00041   1.97033
    A3        2.10956  -0.00007   0.00000   0.00066   0.00066   2.11022
    A4        2.22986   0.00012   0.00000  -0.00016  -0.00016   2.22970
    A5        1.93961  -0.00023   0.00000  -0.00017  -0.00017   1.93944
    A6        2.11372   0.00011   0.00000   0.00033   0.00033   2.11404
    A7        1.94033  -0.00002   0.00000   0.00108   0.00108   1.94142
    A8        2.15476   0.00009   0.00000  -0.00043  -0.00043   2.15433
    A9        2.18806  -0.00007   0.00000  -0.00065  -0.00065   2.18741
   A10        2.16006  -0.00006   0.00000   0.00091   0.00091   2.16097
   A11        2.13898  -0.00015   0.00000  -0.00001  -0.00001   2.13897
   A12        1.98408   0.00021   0.00000  -0.00089  -0.00089   1.98319
   A13        1.59001  -0.00023   0.00000   0.00039   0.00039   1.59040
   A14        2.69340   0.01075   0.00000   0.07602   0.07553   2.76893
   A15        2.74834   0.01069   0.00000   0.07569   0.07520   2.82354
    D1       -0.00023   0.00000   0.00000  -0.00007  -0.00007  -0.00030
    D2       -3.13823  -0.00018   0.00000  -0.00009  -0.00009  -3.13832
    D3        3.13798   0.00007   0.00000   0.00058   0.00058   3.13856
    D4       -0.00003  -0.00011   0.00000   0.00057   0.00057   0.00054
    D5        0.00191  -0.00003   0.00000  -0.00021  -0.00021   0.00170
    D6        3.13520  -0.00004   0.00000  -0.00012  -0.00012   3.13508
    D7        3.14032   0.00003   0.00000   0.00040   0.00040   3.14072
    D8       -0.00957   0.00003   0.00000   0.00049   0.00049  -0.00909
    D9       -0.00141   0.00017   0.00000  -0.00060  -0.00060  -0.00201
   D10       -3.13969   0.00001   0.00000  -0.00062  -0.00062  -3.14031
   D11       -3.13309  -0.00015   0.00000  -0.00070  -0.00070  -3.13379
   D12       -0.00302   0.00016   0.00000  -0.00026  -0.00026  -0.00328
   D13        0.01699  -0.00014   0.00000  -0.00079  -0.00079   0.01620
   D14       -3.13612   0.00017   0.00000  -0.00035  -0.00035  -3.13647
   D15        0.55206   0.00058   0.00000   0.00261   0.00261   0.55467
   D16       -2.67675   0.00040   0.00000   0.00071   0.00071  -2.67603
   D17       -2.59902   0.00057   0.00000   0.00272   0.00271  -2.59631
   D18        0.45536   0.00039   0.00000   0.00081   0.00082   0.45618
   D19        3.13279   0.00012   0.00000   0.00093   0.00093   3.13373
   D20        0.00256  -0.00019   0.00000   0.00049   0.00049   0.00306
         Item               Value     Threshold  Converged?
 Maximum Force            0.068456     0.000450     NO 
 RMS     Force            0.010254     0.000300     NO 
 Maximum Displacement     0.219425     0.001800     NO 
 RMS     Displacement     0.052206     0.001200     NO 
 Predicted change in Energy=-3.786096D-02
 GradGradGradGradGradGradGradGradGradGradGradGradGradGradGradGradGradGrad

                          Input orientation:                          
 ---------------------------------------------------------------------
 Center     Atomic      Atomic             Coordinates (Angstroms)
 Number     Number       Type             X           Y           Z
 ---------------------------------------------------------------------
      1          6           0       -0.396673    1.226351   -0.010722
      2          6           0        0.946870    1.140548   -0.009421
      3          1           0       -0.376353   -2.086541    0.008946
      4          1           0       -0.978965    2.138651   -0.020050
      5          1           0        1.662514    1.952049   -0.017567
      6          7           0       -1.025072   -0.031474   -0.001874
      7          1           0       -4.264847    0.126473   -0.323918
      8          1           0       -4.175172   -0.909787    0.267530
      9          6           0       -0.114783   -1.034664    0.008036
     10         16           0        1.464238   -0.503589    0.001951
     11          4           0       -2.564808   -0.217434    0.007139
 ---------------------------------------------------------------------
                    Distance matrix (angstroms):
                    1          2          3          4          5
     1  C    0.000000
     2  C    1.346281   0.000000
     3  H    3.313012   3.487887   0.000000
     4  H    1.082332   2.169138   4.268047   0.000000
     5  H    2.183331   1.082010   4.524145   2.648062   0.000000
     6  N    1.406088   2.293958   2.155053   2.170690   3.340318
     7  H    4.033682   5.318763   4.486492   3.864999   6.209684
     8  H    4.349432   5.524119   3.985303   4.426219   6.507685
     9  C    2.278596   2.420529   1.083912   3.289001   3.475614
    10  S    2.540835   1.723654   2.427666   3.598771   2.463707
    11  Be   2.604926   3.765138   2.878002   2.840206   4.751580
                    6          7          8          9         10
     6  N    0.000000
     7  H    3.259571   0.000000
     8  H    3.281333   1.196531   0.000000
     9  C    1.354664   4.322206   4.070588   0.000000
    10  S    2.533687   5.772831   5.660254   1.665949   0.000000
    11  Be   1.550951   1.765787   1.772126   2.582728   4.039198
                   11
    11  Be   0.000000
 Stoichiometry    C3H5BeNS(2+)
 Framework group  C1[X(C3H5BeNS)]
 Deg. of freedom    27
 Full point group                 C1      NOp   1
 Largest Abelian subgroup         C1      NOp   1
 Largest concise Abelian subgroup C1      NOp   1
                         Standard orientation:                         
 ---------------------------------------------------------------------
 Center     Atomic      Atomic             Coordinates (Angstroms)
 Number     Number       Type             X           Y           Z
 ---------------------------------------------------------------------
      1          6           0        0.404014    1.225702   -0.010052
      2          6           0       -0.939379    1.137591   -0.007661
      3          1           0        0.389414   -2.087155    0.018493
      4          1           0        0.984735    2.139037   -0.015050
      5          1           0       -1.656416    1.947899   -0.010014
      6          7           0        1.034580   -0.031041   -0.001752
      7          1           0        4.274648    0.137117    0.312067
      8          1           0        4.185713   -0.907788   -0.264085
      9          6           0        0.126019   -1.035825    0.004583
     10         16           0       -1.453909   -0.507420    0.005817
     11          4           0        2.574617   -0.214477   -0.010860
 ---------------------------------------------------------------------
 Rotational constants (GHZ):      7.3495655      2.5912022      1.9182785
 Standard basis: 6-311+G(d,p) (5D, 7F)
 There are   170 symmetry adapted basis functions of A   symmetry.
 Integral buffers will be    262144 words long.
 Raffenetti 2 integral format.
 Two-electron integral symmetry is turned on.
   170 basis functions,   270 primitive gaussians,   176 cartesian basis functions
    24 alpha electrons       24 beta electrons
       nuclear repulsion energy       251.3210850489 Hartrees.
 NAtoms=   11 NActive=   11 NUniq=   11 SFac= 7.50D-01 NAtFMM=   80 NAOKFM=F Big=F
 Nuclear repulsion after empirical dispersion term =      251.3180405289 Hartrees.
 One-electron integrals computed using PRISM.
 NBasis=   170 RedAO= T  NBF=   170
 NBsUse=   170 1.00D-06 NBFU=   170
 Initial guess read from the read-write file.
 B after Tr=     0.000000    0.000000    0.000000
         Rot=    1.000000    0.000000    0.000000    0.000000 Ang=   0.00 deg.
 Initial guess orbital symmetries:
       Occupied  (A) (A) (A) (A) (A) (A) (A) (A) (A) (A) (A) (A)
                 (A) (A) (A) (A) (A) (A) (A) (A) (A) (A) (A) (A)
       Virtual   (A) (A) (A) (A) (A) (A) (A) (A) (A) (A) (A) (A)
                 (A) (A) (A) (A) (A) (A) (A) (A) (A) (A) (A) (A)
                 (A) (A) (A) (A) (A) (A) (A) (A) (A) (A) (A) (A)
                 (A) (A) (A) (A) (A) (A) (A) (A) (A) (A) (A) (A)
                 (A) (A) (A) (A) (A) (A) (A) (A) (A) (A) (A) (A)
                 (A) (A) (A) (A) (A) (A) (A) (A) (A) (A) (A) (A)
                 (A) (A) (A) (A) (A) (A) (A) (A) (A) (A) (A) (A)
                 (A) (A) (A) (A) (A) (A) (A) (A) (A) (A) (A) (A)
                 (A) (A) (A) (A) (A) (A) (A) (A) (A) (A) (A) (A)
                 (A) (A) (A) (A) (A) (A) (A) (A) (A) (A) (A) (A)
                 (A) (A) (A) (A) (A) (A) (A) (A) (A) (A) (A) (A)
                 (A) (A) (A) (A) (A) (A) (A) (A) (A) (A) (A) (A)
                 (A) (A)
 Harris functional with IExCor= 4639 diagonalized for initial guess.
 ExpMin= 2.07D-02 ExpMax= 9.34D+04 ExpMxC= 3.17D+03 IAcc=3 IRadAn=         0 AccDes= 0.00D+00
 HarFok:  IExCor= 4639 AccDes= 0.00D+00 IRadAn=         0 IDoV= 1
 ScaDFX=  1.000000  1.000000  1.000000  1.000000
 FoFCou: FMM=F IPFlag=           0 FMFlag=      100000 FMFlg1=           0
         NFxFlg=           0 DoJE=T BraDBF=F KetDBF=T FulRan=T
         Omega=  0.000000  0.000000  1.000000  0.000000  0.000000 ICntrl=     500 IOpCl=  0
         NMat0=    1 NMatS0=    1 NMatT0=    0 NMatD0=    1 NMtDS0=    0 NMtDT0=    0
         I1Cent=           4 NGrid=           0.
 Petite list used in FoFCou.
 Requested convergence on RMS density matrix=1.00D-08 within 128 cycles.
 Requested convergence on MAX density matrix=1.00D-06.
 Requested convergence on             energy=1.00D-06.
 No special actions if energy rises.
 FoFJK:  IHMeth= 1 ICntrl=     0 DoSepK=T KAlg= 1 I1Cent= 0 FoldK=F
 FoFJK:  IHMeth= 1 ICntrl=     0 DoSepK=T KAlg= 1 I1Cent= 0 FoldK=F
 FoFJK:  IHMeth= 1 ICntrl=     0 DoSepK=T KAlg= 1 I1Cent= 0 FoldK=F
 FoFJK:  IHMeth= 1 ICntrl=     0 DoSepK=T KAlg= 1 I1Cent= 0 FoldK=F
 FoFJK:  IHMeth= 1 ICntrl=     0 DoSepK=T KAlg= 1 I1Cent= 0 FoldK=F
 FoFJK:  IHMeth= 1 ICntrl=     0 DoSepK=T KAlg= 1 I1Cent= 0 FoldK=F
 FoFJK:  IHMeth= 1 ICntrl=     0 DoSepK=T KAlg= 1 I1Cent= 0 FoldK=F
 FoFJK:  IHMeth= 1 ICntrl=     0 DoSepK=T KAlg= 1 I1Cent= 0 FoldK=F
 FoFJK:  IHMeth= 1 ICntrl=     0 DoSepK=T KAlg= 1 I1Cent= 0 FoldK=F
 FoFJK:  IHMeth= 1 ICntrl=     0 DoSepK=T KAlg= 1 I1Cent= 0 FoldK=F
 FoFJK:  IHMeth= 1 ICntrl=     0 DoSepK=T KAlg= 1 I1Cent= 0 FoldK=F
 SCF Done:  E(RwB97XD) =  -584.220859761     A.U. after   11 cycles
             Convg  =    0.9355D-08             -V/T =  2.0024
 Calling FoFJK, ICntrl=      2127 FMM=F ISym2X=0 I1Cent= 0 IOpClX= 0 NMat=1 NMatS=1 NMatT=0.
 FoFJK:  IHMeth= 1 ICntrl=  2127 DoSepK=T KAlg= 1 I1Cent= 0 FoldK=F
 ***** Axes restored to original set *****
 -------------------------------------------------------------------
 Center     Atomic                   Forces (Hartrees/Bohr)
 Number     Number              X              Y              Z
 -------------------------------------------------------------------
      1        6          -0.000195752   -0.000382926    0.000180385
      2        6           0.000200203   -0.000141071   -0.000240629
      3        1           0.000024355    0.000043393    0.000241679
      4        1           0.000036763   -0.000051875    0.000121585
      5        1           0.000001815   -0.000036128    0.000047486
      6        7           0.000667748    0.000055873    0.000449913
      7        1           0.008564242   -0.065793560    0.037258116
      8        1          -0.002596946    0.066541252   -0.037066201
      9        6          -0.000373456    0.000411596   -0.000955782
     10       16           0.000277671    0.000129188    0.000327147
     11        4          -0.006606643   -0.000775742   -0.000363699
 -------------------------------------------------------------------
 Cartesian Forces:  Max     0.066541252 RMS     0.018785525

 GradGradGradGradGradGradGradGradGradGradGradGradGradGradGradGradGradGrad
 Berny optimization.
 Using GEDIIS/GDIIS optimizer.
 Internal  Forces:  Max     0.071541855 RMS     0.010715005
 Search for a local minimum.
 Step number   3 out of a maximum of   57
 All quantities printed in internal units (Hartrees-Bohrs-Radians)
 Mixed Optimization -- RFO/linear search
 Update second derivatives using D2CorX and points    2    3
 DE= -3.67D-02 DEPred=-3.79D-02 R= 9.71D-01
 SS=  1.41D+00  RLast= 5.05D-01 DXNew= 8.4853D-01 1.5136D+00
 Trust test= 9.71D-01 RLast= 5.05D-01 DXMaxT set to 8.49D-01
 Use linear search instead of GDIIS.
     Eigenvalues ---   -0.00655   0.01877   0.02061   0.02235   0.02275
     Eigenvalues ---    0.02418   0.02559   0.03427   0.03445   0.06134
     Eigenvalues ---    0.06223   0.15998   0.15999   0.16000   0.16000
     Eigenvalues ---    0.22468   0.23440   0.24997   0.27613   0.32264
     Eigenvalues ---    0.35509   0.35697   0.35732   0.38562   0.43235
     Eigenvalues ---    0.50256   0.545451000.000001000.000001000.00000
     Eigenvalues --- 1000.000001000.000001000.000001000.000001000.00000
     Eigenvalues --- 1000.000001000.000001000.000001000.000001000.00000
     Eigenvalues --- 1000.000001000.000001000.000001000.000001000.00000
     Eigenvalues --- 1000.000001000.00000
 RFO step:  Lambda=-7.67485755D-02 EMin=-6.54666599D-03
 Skip linear search -- no minimum in search direction.
 Maximum step size (   0.849) exceeded in Quadratic search.
    -- Step size scaled by   0.848
 Iteration  1 RMS(Cart)=  0.02393634 RMS(Int)=  0.08898438
 Iteration  2 RMS(Cart)=  0.02322402 RMS(Int)=  0.05627903
 Iteration  3 RMS(Cart)=  0.02195888 RMS(Int)=  0.02515290
 Iteration  4 RMS(Cart)=  0.01765570 RMS(Int)=  0.00023180
 Iteration  5 RMS(Cart)=  0.00021362 RMS(Int)=  0.00001150
 Iteration  6 RMS(Cart)=  0.00000000 RMS(Int)=  0.00001150
 Variable       Old X    -DE/DX   Delta X   Delta X   Delta X     New X
                                 (Linear)    (Quad)   (Total)
    R1        2.54410   0.00018   0.00000   0.00019   0.00019   2.54430
    R2        2.04531  -0.00006   0.00000   0.00009   0.00009   2.04540
    R3        2.65712  -0.00032   0.00000   0.00032   0.00032   2.65744
    R4        2.04470  -0.00002   0.00000   0.00009   0.00009   2.04479
    R5        3.25723  -0.00022   0.00000  -0.00043  -0.00043   3.25680
    R6        2.04830  -0.00005   0.00000   0.00009   0.00009   2.04838
    R7        2.55994  -0.00031   0.00000   0.00040   0.00040   2.56034
    R8        2.93087   0.00063   0.00000  -0.00211  -0.00211   2.92876
    R9        2.26112  -0.07154   0.00000  -0.82522  -0.82524   1.43588
   R10        3.33685  -0.00419   0.00000  -0.06134  -0.06134   3.27551
   R11        3.34883  -0.00455   0.00000  -0.06501  -0.06500   3.28383
   R12        3.14819   0.00024   0.00000   0.00028   0.00028   3.14847
    A1        2.20264  -0.00006   0.00000   0.00043   0.00043   2.20307
    A2        1.97033   0.00014   0.00000  -0.00086  -0.00086   1.96947
    A3        2.11022  -0.00007   0.00000   0.00042   0.00042   2.11064
    A4        2.22970   0.00001   0.00000  -0.00059  -0.00059   2.22911
    A5        1.93944   0.00000   0.00000   0.00079   0.00079   1.94023
    A6        2.11404  -0.00001   0.00000  -0.00019  -0.00019   2.11385
    A7        1.94142  -0.00016   0.00000   0.00046   0.00046   1.94188
    A8        2.15433   0.00007   0.00000  -0.00058  -0.00058   2.15375
    A9        2.18741   0.00009   0.00000   0.00013   0.00013   2.18753
   A10        2.16097  -0.00009   0.00000   0.00058   0.00057   2.16155
   A11        2.13897  -0.00014   0.00000  -0.00028  -0.00028   2.13868
   A12        1.98319   0.00023   0.00000  -0.00027  -0.00027   1.98292
   A13        1.59040  -0.00020   0.00000  -0.00012  -0.00012   1.59028
   A14        2.76893   0.01095   0.00000   0.12485   0.12479   2.89372
   A15        2.82354   0.01088   0.00000   0.12414   0.12409   2.94762
    D1       -0.00030   0.00001   0.00000   0.00030   0.00029   0.00000
    D2       -3.13832  -0.00016   0.00000  -0.00105  -0.00105  -3.13937
    D3        3.13856   0.00007   0.00000   0.00079   0.00079   3.13935
    D4        0.00054  -0.00010   0.00000  -0.00055  -0.00055  -0.00001
    D5        0.00170  -0.00003   0.00000  -0.00041  -0.00041   0.00129
    D6        3.13508  -0.00002   0.00000   0.00012   0.00012   3.13520
    D7        3.14072   0.00002   0.00000   0.00006   0.00006   3.14078
    D8       -0.00909   0.00004   0.00000   0.00059   0.00059  -0.00850
    D9       -0.00201   0.00016   0.00000   0.00105   0.00105  -0.00096
   D10       -3.14031   0.00000   0.00000  -0.00019  -0.00019  -3.14050
   D11       -3.13379  -0.00014   0.00000  -0.00135  -0.00135  -3.13514
   D12       -0.00328   0.00016   0.00000   0.00123   0.00123  -0.00205
   D13        0.01620  -0.00016   0.00000  -0.00189  -0.00189   0.01431
   D14       -3.13647   0.00014   0.00000   0.00070   0.00070  -3.13578
   D15        0.55467   0.00036   0.00000   0.00084   0.00084   0.55551
   D16       -2.67603   0.00020   0.00000  -0.00098  -0.00097  -2.67701
   D17       -2.59631   0.00038   0.00000   0.00145   0.00144  -2.59486
   D18        0.45618   0.00022   0.00000  -0.00037  -0.00037   0.45580
   D19        3.13373   0.00011   0.00000   0.00124   0.00124   3.13497
   D20        0.00306  -0.00018   0.00000  -0.00131  -0.00131   0.00174
         Item               Value     Threshold  Converged?
 Maximum Force            0.071542     0.000450     NO 
 RMS     Force            0.010715     0.000300     NO 
 Maximum Displacement     0.359119     0.001800     NO 
 RMS     Displacement     0.085703     0.001200     NO 
 Predicted change in Energy=-6.464517D-02
 GradGradGradGradGradGradGradGradGradGradGradGradGradGradGradGradGradGrad

                          Input orientation:                          
 ---------------------------------------------------------------------
 Center     Atomic      Atomic             Coordinates (Angstroms)
 Number     Number       Type             X           Y           Z
 ---------------------------------------------------------------------
      1          6           0       -0.392805    1.226625   -0.011705
      2          6           0        0.950864    1.141226   -0.008858
      3          1           0       -0.368954   -2.087039    0.008575
      4          1           0       -0.975785    2.138538   -0.021260
      5          1           0        1.665817    1.953413   -0.015500
      6          7           0       -1.019826   -0.032077   -0.003584
      7          1           0       -4.270897   -0.063565   -0.214487
      8          1           0       -4.214361   -0.720833    0.162542
      9          6           0       -0.108702   -1.034788    0.006849
     10         16           0        1.469950   -0.502119    0.003976
     11          4           0       -2.558353   -0.218798    0.003503
 ---------------------------------------------------------------------
                    Distance matrix (angstroms):
                    1          2          3          4          5
     1  C    0.000000
     2  C    1.346383   0.000000
     3  H    3.313812   3.487681   0.000000
     4  H    1.082378   2.169507   4.269032   0.000000
     5  H    2.183154   1.082058   4.523949   2.648087   0.000000
     6  N    1.406255   2.293532   2.155609   2.171134   3.339909
     7  H    4.092103   5.362890   4.401064   3.967916   6.273147
     8  H    4.292697   5.493287   4.083795   4.324138   6.462182
     9  C    2.279265   2.420324   1.083958   3.289775   3.475452
    10  S    2.541389   1.723426   2.427665   3.599350   2.463408
    11  Be   2.603666   3.763565   2.878162   2.839395   4.749997
                    6          7          8          9         10
     6  N    0.000000
     7  H    3.258057   0.000000
     8  H    3.272161   0.759835   0.000000
     9  C    1.354874   4.279734   4.120588   0.000000
    10  S    2.533768   5.761716   5.690727   1.666099   0.000000
    11  Be   1.549832   1.733327   1.737728   2.581983   4.038253
                   11
    11  Be   0.000000
 Stoichiometry    C3H5BeNS(2+)
 Framework group  C1[X(C3H5BeNS)]
 Deg. of freedom    27
 Full point group                 C1      NOp   1
 Largest Abelian subgroup         C1      NOp   1
 Largest concise Abelian subgroup C1      NOp   1
                         Standard orientation:                         
 ---------------------------------------------------------------------
 Center     Atomic      Atomic             Coordinates (Angstroms)
 Number     Number       Type             X           Y           Z
 ---------------------------------------------------------------------
      1          6           0        0.403109    1.226032   -0.004167
      2          6           0       -0.940329    1.137026   -0.002812
      3          1           0        0.388125   -2.087716    0.009889
      4          1           0        0.983654    2.139545   -0.005486
      5          1           0       -1.657447    1.947330   -0.002805
      6          7           0        1.033493   -0.031011   -0.000817
      7          1           0        4.285142   -0.051648    0.202370
      8          1           0        4.229455   -0.712932   -0.167699
      9          6           0        0.125048   -1.036202    0.001373
     10         16           0       -1.455020   -0.507741    0.002636
     11          4           0        2.572494   -0.213694   -0.009772
 ---------------------------------------------------------------------
 Rotational constants (GHZ):      7.3951854      2.5867216      1.9174270
 Standard basis: 6-311+G(d,p) (5D, 7F)
 There are   170 symmetry adapted basis functions of A   symmetry.
 Integral buffers will be    262144 words long.
 Raffenetti 2 integral format.
 Two-electron integral symmetry is turned on.
   170 basis functions,   270 primitive gaussians,   176 cartesian basis functions
    24 alpha electrons       24 beta electrons
       nuclear repulsion energy       251.6158904886 Hartrees.
 NAtoms=   11 NActive=   11 NUniq=   11 SFac= 7.50D-01 NAtFMM=   80 NAOKFM=F Big=F
 Nuclear repulsion after empirical dispersion term =      251.6128603107 Hartrees.
 One-electron integrals computed using PRISM.
 NBasis=   170 RedAO= T  NBF=   170
 NBsUse=   170 1.00D-06 NBFU=   170
 Initial guess read from the read-write file.
 B after Tr=     0.000000    0.000000    0.000000
         Rot=    1.000000    0.000000    0.000000    0.000000 Ang=   0.00 deg.
 Initial guess orbital symmetries:
       Occupied  (A) (A) (A) (A) (A) (A) (A) (A) (A) (A) (A) (A)
                 (A) (A) (A) (A) (A) (A) (A) (A) (A) (A) (A) (A)
       Virtual   (A) (A) (A) (A) (A) (A) (A) (A) (A) (A) (A) (A)
                 (A) (A) (A) (A) (A) (A) (A) (A) (A) (A) (A) (A)
                 (A) (A) (A) (A) (A) (A) (A) (A) (A) (A) (A) (A)
                 (A) (A) (A) (A) (A) (A) (A) (A) (A) (A) (A) (A)
                 (A) (A) (A) (A) (A) (A) (A) (A) (A) (A) (A) (A)
                 (A) (A) (A) (A) (A) (A) (A) (A) (A) (A) (A) (A)
                 (A) (A) (A) (A) (A) (A) (A) (A) (A) (A) (A) (A)
                 (A) (A) (A) (A) (A) (A) (A) (A) (A) (A) (A) (A)
                 (A) (A) (A) (A) (A) (A) (A) (A) (A) (A) (A) (A)
                 (A) (A) (A) (A) (A) (A) (A) (A) (A) (A) (A) (A)
                 (A) (A) (A) (A) (A) (A) (A) (A) (A) (A) (A) (A)
                 (A) (A) (A) (A) (A) (A) (A) (A) (A) (A) (A) (A)
                 (A) (A)
 Harris functional with IExCor= 4639 diagonalized for initial guess.
 ExpMin= 2.07D-02 ExpMax= 9.34D+04 ExpMxC= 3.17D+03 IAcc=3 IRadAn=         0 AccDes= 0.00D+00
 HarFok:  IExCor= 4639 AccDes= 0.00D+00 IRadAn=         0 IDoV= 1
 ScaDFX=  1.000000  1.000000  1.000000  1.000000
 FoFCou: FMM=F IPFlag=           0 FMFlag=      100000 FMFlg1=           0
         NFxFlg=           0 DoJE=T BraDBF=F KetDBF=T FulRan=T
         Omega=  0.000000  0.000000  1.000000  0.000000  0.000000 ICntrl=     500 IOpCl=  0
         NMat0=    1 NMatS0=    1 NMatT0=    0 NMatD0=    1 NMtDS0=    0 NMtDT0=    0
         I1Cent=           4 NGrid=           0.
 Petite list used in FoFCou.
 Requested convergence on RMS density matrix=1.00D-08 within 128 cycles.
 Requested convergence on MAX density matrix=1.00D-06.
 Requested convergence on             energy=1.00D-06.
 No special actions if energy rises.
 FoFJK:  IHMeth= 1 ICntrl=     0 DoSepK=T KAlg= 1 I1Cent= 0 FoldK=F
 FoFJK:  IHMeth= 1 ICntrl=     0 DoSepK=T KAlg= 1 I1Cent= 0 FoldK=F
 FoFJK:  IHMeth= 1 ICntrl=     0 DoSepK=T KAlg= 1 I1Cent= 0 FoldK=F
 FoFJK:  IHMeth= 1 ICntrl=     0 DoSepK=T KAlg= 1 I1Cent= 0 FoldK=F
 FoFJK:  IHMeth= 1 ICntrl=     0 DoSepK=T KAlg= 1 I1Cent= 0 FoldK=F
 FoFJK:  IHMeth= 1 ICntrl=     0 DoSepK=T KAlg= 1 I1Cent= 0 FoldK=F
 FoFJK:  IHMeth= 1 ICntrl=     0 DoSepK=T KAlg= 1 I1Cent= 0 FoldK=F
 FoFJK:  IHMeth= 1 ICntrl=     0 DoSepK=T KAlg= 1 I1Cent= 0 FoldK=F
 FoFJK:  IHMeth= 1 ICntrl=     0 DoSepK=T KAlg= 1 I1Cent= 0 FoldK=F
 FoFJK:  IHMeth= 1 ICntrl=     0 DoSepK=T KAlg= 1 I1Cent= 0 FoldK=F
 FoFJK:  IHMeth= 1 ICntrl=     0 DoSepK=T KAlg= 1 I1Cent= 0 FoldK=F
 FoFJK:  IHMeth= 1 ICntrl=     0 DoSepK=T KAlg= 1 I1Cent= 0 FoldK=F
 FoFJK:  IHMeth= 1 ICntrl=     0 DoSepK=T KAlg= 1 I1Cent= 0 FoldK=F
 SCF Done:  E(RwB97XD) =  -584.262210408     A.U. after   13 cycles
             Convg  =    0.3889D-08             -V/T =  2.0021
 Calling FoFJK, ICntrl=      2127 FMM=F ISym2X=0 I1Cent= 0 IOpClX= 0 NMat=1 NMatS=1 NMatT=0.
 FoFJK:  IHMeth= 1 ICntrl=  2127 DoSepK=T KAlg= 1 I1Cent= 0 FoldK=F
 ***** Axes restored to original set *****
 -------------------------------------------------------------------
 Center     Atomic                   Forces (Hartrees/Bohr)
 Number     Number              X              Y              Z
 -------------------------------------------------------------------
      1        6           0.000356583    0.000449869    0.000017926
      2        6          -0.000220349    0.000031051   -0.000119084
      3        1          -0.000033545   -0.000039709    0.000219957
      4        1          -0.000000986    0.000016930    0.000075464
      5        1           0.000017346    0.000039953    0.000051221
      6        7          -0.001312860   -0.000037058    0.000352780
      7        1           0.003026280    0.014677851   -0.008296567
      8        1           0.005651068   -0.013715888    0.008484436
      9        6           0.000762785   -0.000466733   -0.000600441
     10       16          -0.000337676   -0.000185650    0.000148868
     11        4          -0.007908645   -0.000770617   -0.000334560
 -------------------------------------------------------------------
 Cartesian Forces:  Max     0.014677851 RMS     0.004446191

 GradGradGradGradGradGradGradGradGradGradGradGradGradGradGradGradGradGrad
 Berny optimization.
 Using GEDIIS/GDIIS optimizer.
 Internal  Forces:  Max     0.016614876 RMS     0.002653599
 Search for a local minimum.
 Step number   4 out of a maximum of   57
 All quantities printed in internal units (Hartrees-Bohrs-Radians)
 Mixed Optimization -- RFO/linear search
 Update second derivatives using D2CorX and points    3    4
 DE= -4.14D-02 DEPred=-6.46D-02 R= 6.40D-01
 SS=  1.41D+00  RLast= 8.49D-01 DXNew= 1.4270D+00 2.5456D+00
 Trust test= 6.40D-01 RLast= 8.49D-01 DXMaxT set to 1.43D+00
 Use linear search instead of GDIIS.
     Eigenvalues ---    0.01877   0.02061   0.02235   0.02275   0.02418
     Eigenvalues ---    0.02559   0.03432   0.03444   0.05977   0.06198
     Eigenvalues ---    0.10848   0.15998   0.16000   0.16000   0.16000
     Eigenvalues ---    0.22468   0.23445   0.24997   0.27628   0.32264
     Eigenvalues ---    0.35509   0.35697   0.35732   0.38564   0.43237
     Eigenvalues ---    0.50260   0.545461000.000001000.000001000.00000
     Eigenvalues --- 1000.000001000.000001000.000001000.000001000.00000
     Eigenvalues --- 1000.000001000.000001000.000001000.000001000.00000
     Eigenvalues --- 1000.000001000.000001000.000001000.000001000.00000
     Eigenvalues --- 1000.000001000.00000
 RFO step:  Lambda=-8.35758884D-04 EMin= 1.87655239D-02
 Quartic linear search produced a step of -0.07146.
 Iteration  1 RMS(Cart)=  0.01750048 RMS(Int)=  0.00010512
 Iteration  2 RMS(Cart)=  0.00006094 RMS(Int)=  0.00007822
 Iteration  3 RMS(Cart)=  0.00000000 RMS(Int)=  0.00007822
 Variable       Old X    -DE/DX   Delta X   Delta X   Delta X     New X
                                 (Linear)    (Quad)   (Total)
    R1        2.54430  -0.00019  -0.00001  -0.00032  -0.00034   2.54396
    R2        2.04540   0.00002  -0.00001   0.00007   0.00006   2.04546
    R3        2.65744   0.00040  -0.00002   0.00099   0.00096   2.65840
    R4        2.04479   0.00005  -0.00001   0.00015   0.00014   2.04493
    R5        3.25680   0.00018   0.00003   0.00039   0.00042   3.25723
    R6        2.04838   0.00004  -0.00001   0.00012   0.00012   2.04850
    R7        2.56034   0.00062  -0.00003   0.00133   0.00130   2.56164
    R8        2.92876  -0.00079   0.00015  -0.00317  -0.00302   2.92574
    R9        1.43588   0.01661   0.05897  -0.00146   0.05740   1.49328
   R10        3.27551  -0.00418   0.00438  -0.07911  -0.07470   3.20082
   R11        3.28383  -0.00437   0.00465  -0.08429  -0.07962   3.20421
   R12        3.14847  -0.00033  -0.00002  -0.00078  -0.00080   3.14767
    A1        2.20307   0.00004  -0.00003   0.00025   0.00022   2.20330
    A2        1.96947  -0.00008   0.00006  -0.00039  -0.00033   1.96914
    A3        2.11064   0.00004  -0.00003   0.00014   0.00011   2.11075
    A4        2.22911  -0.00007   0.00004  -0.00032  -0.00028   2.22883
    A5        1.94023   0.00007  -0.00006   0.00025   0.00019   1.94041
    A6        2.11385   0.00000   0.00001   0.00008   0.00009   2.11394
    A7        1.94188  -0.00003  -0.00003   0.00009   0.00006   1.94194
    A8        2.15375  -0.00004   0.00004  -0.00032  -0.00028   2.15347
    A9        2.18753   0.00007  -0.00001   0.00024   0.00023   2.18776
   A10        2.16155   0.00006  -0.00004   0.00020   0.00014   2.16168
   A11        2.13868   0.00008   0.00002   0.00023   0.00023   2.13892
   A12        1.98292  -0.00013   0.00002  -0.00035  -0.00034   1.98258
   A13        1.59028   0.00018   0.00001   0.00041   0.00042   1.59070
   A14        2.89372  -0.00286  -0.00892  -0.00515  -0.01444   2.87929
   A15        2.94762  -0.00292  -0.00887  -0.00559  -0.01483   2.93280
    D1        0.00000   0.00001  -0.00002   0.00063   0.00061   0.00060
    D2       -3.13937  -0.00008   0.00007  -0.00394  -0.00387   3.13995
    D3        3.13935   0.00005  -0.00006   0.00230   0.00225  -3.14158
    D4       -0.00001  -0.00004   0.00004  -0.00226  -0.00222  -0.00223
    D5        0.00129  -0.00003   0.00003  -0.00139  -0.00136  -0.00007
    D6        3.13520   0.00000  -0.00001   0.00001   0.00001   3.13520
    D7        3.14078   0.00001   0.00000   0.00019   0.00019   3.14096
    D8       -0.00850   0.00003  -0.00004   0.00159   0.00155  -0.00695
    D9       -0.00096   0.00008  -0.00007   0.00409   0.00402   0.00306
   D10       -3.14050  -0.00001   0.00001  -0.00013  -0.00011  -3.14061
   D11       -3.13514  -0.00013   0.00010  -0.00620  -0.00611  -3.14125
   D12       -0.00205   0.00009  -0.00009   0.00460   0.00451   0.00246
   D13        0.01431  -0.00015   0.00013  -0.00764  -0.00750   0.00681
   D14       -3.13578   0.00006  -0.00005   0.00317   0.00312  -3.13266
   D15        0.55551   0.00005  -0.00006   0.00125   0.00119   0.55670
   D16       -2.67701   0.00007   0.00007   0.00134   0.00142  -2.67559
   D17       -2.59486   0.00008  -0.00010   0.00285   0.00275  -2.59211
   D18        0.45580   0.00010   0.00003   0.00295   0.00297   0.45878
   D19        3.13497   0.00012  -0.00009   0.00564   0.00555   3.14052
   D20        0.00174  -0.00009   0.00009  -0.00500  -0.00491  -0.00316
         Item               Value     Threshold  Converged?
 Maximum Force            0.016615     0.000450     NO 
 RMS     Force            0.002654     0.000300     NO 
 Maximum Displacement     0.076062     0.001800     NO 
 RMS     Displacement     0.017551     0.001200     NO 
 Predicted change in Energy=-1.100564D-03
 GradGradGradGradGradGradGradGradGradGradGradGradGradGradGradGradGradGrad

                          Input orientation:                          
 ---------------------------------------------------------------------
 Center     Atomic      Atomic             Coordinates (Angstroms)
 Number     Number       Type             X           Y           Z
 ---------------------------------------------------------------------
      1          6           0       -0.401024    1.225984   -0.012368
      2          6           0        0.942413    1.139745   -0.010141
      3          1           0       -0.377948   -2.088780    0.010409
      4          1           0       -0.983653    2.138177   -0.019965
      5          1           0        1.657697    1.951753   -0.014943
      6          7           0       -1.028648   -0.032988   -0.004330
      7          1           0       -4.235498   -0.045526   -0.221895
      8          1           0       -4.174111   -0.728582    0.170655
      9          6           0       -0.117419   -1.036555    0.003696
     10         16           0        1.460833   -0.504019    0.005561
     11          4           0       -2.565693   -0.218625    0.003371
 ---------------------------------------------------------------------
                    Distance matrix (angstroms):
                    1          2          3          4          5
     1  C    0.000000
     2  C    1.346204   0.000000
     3  H    3.314923   3.488144   0.000000
     4  H    1.082410   2.169492   4.270242   0.000000
     5  H    2.182905   1.082132   4.524422   2.647925   0.000000
     6  N    1.406765   2.293560   2.156364   2.171688   3.340023
     7  H    4.045223   5.316058   4.371446   3.922223   6.225889
     8  H    4.253236   5.449969   4.035675   4.293445   6.420952
     9  C    2.280301   2.420685   1.084019   3.290873   3.475826
    10  S    2.541603   1.723649   2.427469   3.599634   2.463735
    11  Be   2.602487   3.761936   2.878152   2.838647   4.748463
                    6          7          8          9         10
     6  N    0.000000
     7  H    3.214246   0.000000
     8  H    3.226207   0.790208   0.000000
     9  C    1.355562   4.241651   4.071790   0.000000
    10  S    2.533670   5.719277   5.641833   1.665676   0.000000
    11  Be   1.548234   1.693799   1.695597   2.581289   4.036628
                   11
    11  Be   0.000000
 Stoichiometry    C3H5BeNS(2+)
 Framework group  C1[X(C3H5BeNS)]
 Deg. of freedom    27
 Full point group                 C1      NOp   1
 Largest Abelian subgroup         C1      NOp   1
 Largest concise Abelian subgroup C1      NOp   1
                         Standard orientation:                         
 ---------------------------------------------------------------------
 Center     Atomic      Atomic             Coordinates (Angstroms)
 Number     Number       Type             X           Y           Z
 ---------------------------------------------------------------------
      1          6           0        0.406510    1.225809   -0.004281
      2          6           0       -0.936833    1.138115   -0.001831
      3          1           0        0.387014   -2.089031    0.008664
      4          1           0        0.988155    2.138654   -0.008122
      5          1           0       -1.652992    1.949362   -0.003768
[...]
 Zero-point vibrational energy     194499.7 (Joules/Mol)
                                   46.48655 (Kcal/Mol)
 Warning -- explicit consideration of   8 degrees of freedom as
           vibrations may cause significant error
 Vibrational temperatures:    151.79   166.43   304.44   418.73   527.27
          (Kelvin)            666.37   821.80   874.09   971.71  1106.96
                             1181.94  1201.89  1314.86  1360.44  1403.31
                             1513.18  1657.21  1661.18  1793.73  1854.73
                             1889.95  2094.55  2273.47  4646.37  4660.31
                             4696.34  5572.79
 
 Zero-point correction=                           0.074081 (Hartree/Particle)
 Thermal correction to Energy=                    0.080851
 Thermal correction to Enthalpy=                  0.081795
 Thermal correction to Gibbs Free Energy=         0.043524
 Sum of electronic and zero-point Energies=           -584.189856
 Sum of electronic and thermal Energies=              -584.183086
 Sum of electronic and thermal Enthalpies=            -584.182142
 Sum of electronic and thermal Free Energies=         -584.220413
 
                     E (Thermal)             CV                S
                      KCal/Mol        Cal/Mol-Kelvin    Cal/Mol-Kelvin
 Total                   50.735             23.870             80.549
 Electronic               0.000              0.000              0.000
 Translational            0.889              2.981             39.597
 Rotational               0.889              2.981             26.561
 Vibrational             48.957             17.909             14.390
 Vibration     1          0.605              1.945              3.350
 Vibration     2          0.608              1.936              3.171
 Vibration     3          0.643              1.823              2.030
 Vibration     4          0.687              1.690              1.468
 Vibration     5          0.739              1.541              1.095
 Vibration     6          0.821              1.332              0.757
 Vibration     7          0.927              1.094              0.502
 Vibration     8          0.966              1.016              0.437
                       Q            Log10(Q)             Ln(Q)
 Total Bot       0.956008D-20        -20.019539        -46.096691
 Total V=0       0.113579D+15         14.055299         32.363522
 Vib (Bot)       0.181551D-32        -32.741003        -75.388944
 Vib (Bot)    1  0.194317D+01          0.288510          0.664318
 Vib (Bot)    2  0.176842D+01          0.247585          0.570086
 Vib (Bot)    3  0.938050D+00         -0.027774         -0.063952
 Vib (Bot)    4  0.656722D+00         -0.182618         -0.420494
 Vib (Bot)    5  0.497988D+00         -0.302781         -0.697180
 Vib (Bot)    6  0.366281D+00         -0.436185         -1.004354
 Vib (Bot)    7  0.269135D+00         -0.570029         -1.312540
 Vib (Bot)    8  0.243879D+00         -0.612826         -1.411084
 Vib (V=0)       0.215692D+02          1.333835          3.071269
 Vib (V=0)    1  0.250646D+01          0.399061          0.918872
 Vib (V=0)    2  0.233775D+01          0.368797          0.849187
 Vib (V=0)    3  0.156299D+01          0.193955          0.446598
 Vib (V=0)    4  0.132540D+01          0.122347          0.281714
 Vib (V=0)    5  0.120569D+01          0.081234          0.187048
 Vib (V=0)    6  0.111981D+01          0.049144          0.113157
 Vib (V=0)    7  0.106783D+01          0.028503          0.065631
 Vib (V=0)    8  0.105631D+01          0.023790          0.054778
 Electronic      0.100000D+01          0.000000          0.000000
 Translational   0.369864D+08          7.568042         17.426060
 Rotational      0.142371D+06          5.153422         11.866193
 ***** Axes restored to original set *****
 -------------------------------------------------------------------
 Center     Atomic                   Forces (Hartrees/Bohr)
 Number     Number              X              Y              Z
 -------------------------------------------------------------------
      1        6          -0.000001663    0.000004368   -0.000034358
      2        6           0.000001637   -0.000008087    0.000023883
      3        1          -0.000010271   -0.000003869   -0.000012376
      4        1           0.000012070    0.000003589    0.000010200
      5        1           0.000007942   -0.000013557    0.000016237
      6        7           0.000011596    0.000054929    0.000021345
      7        1           0.000016191   -0.000007894   -0.000019320
      8        1          -0.000009685    0.000093825    0.000000822
      9        6          -0.000006747   -0.000018136   -0.000034469
     10       16          -0.000010117   -0.000015053   -0.000008042
     11        4          -0.000010954   -0.000090116    0.000036079
 -------------------------------------------------------------------
 Cartesian Forces:  Max     0.000093825 RMS     0.000028914

 GradGradGradGradGradGradGradGradGradGradGradGradGradGradGradGradGradGrad
 Berny optimization.
 Internal  Forces:  Max     0.000046015 RMS     0.000013263
 Search for a local minimum.
 Step number   1 out of a maximum of    2
 All quantities printed in internal units (Hartrees-Bohrs-Radians)
 Second derivative matrix not updated -- analytic derivatives used.
     Eigenvalues ---    0.00013   0.00137   0.00490   0.00579   0.01587
     Eigenvalues ---    0.01985   0.02822   0.03536   0.03826   0.05026
     Eigenvalues ---    0.05207   0.06131   0.09815   0.11374   0.12042
     Eigenvalues ---    0.18508   0.22271   0.23460   0.27194   0.27315
     Eigenvalues ---    0.33118   0.36524   0.36863   0.37192   0.41162
     Eigenvalues ---    0.44200   0.546581000.000001000.000001000.00000
     Eigenvalues --- 1000.000001000.000001000.000001000.000001000.00000
     Eigenvalues --- 1000.000001000.000001000.000001000.000001000.00000
     Eigenvalues --- 1000.000001000.000001000.000001000.000001000.00000
     Eigenvalues --- 1000.000001000.00000
 Angle between quadratic step and forces=  70.17 degrees.
 Linear search not attempted -- first point.
 Iteration  1 RMS(Cart)=  0.00713463 RMS(Int)=  0.00048215
 Iteration  2 RMS(Cart)=  0.00026945 RMS(Int)=  0.00009281
 Iteration  3 RMS(Cart)=  0.00000026 RMS(Int)=  0.00009280
 Variable       Old X    -DE/DX   Delta X   Delta X   Delta X     New X
                                 (Linear)    (Quad)   (Total)
    R1        2.54354   0.00000   0.00000  -0.00002  -0.00002   2.54351
    R2        2.04542   0.00000   0.00000   0.00001   0.00001   2.04543
    R3        2.65899   0.00000   0.00000   0.00000   0.00000   2.65898
    R4        2.04491   0.00000   0.00000   0.00000   0.00000   2.04492
    R5        3.25823   0.00001   0.00000   0.00007   0.00007   3.25831
    R6        2.04853   0.00000   0.00000   0.00001   0.00001   2.04854
    R7        2.56278   0.00001   0.00000  -0.00003  -0.00003   2.56275
    R8        2.92327   0.00000   0.00000   0.00004   0.00004   2.92331
    R9        1.48991   0.00000   0.00000   0.00002  -0.00012   1.48979
   R10        3.11953  -0.00001   0.00000  -0.00034  -0.00030   3.11923
   R11        3.12096  -0.00001   0.00000  -0.00027  -0.00024   3.12072
   R12        3.14655  -0.00001   0.00000   0.00000   0.00000   3.14655
    A1        2.20364   0.00000   0.00000  -0.00002  -0.00002   2.20362
    A2        1.96966  -0.00001   0.00000   0.00000   0.00000   1.96966
    A3        2.10989   0.00001   0.00000   0.00002   0.00002   2.10991
    A4        2.22933   0.00000   0.00000   0.00000   0.00000   2.22933
    A5        1.94014   0.00000   0.00000  -0.00002  -0.00002   1.94013
    A6        2.11371   0.00000   0.00000   0.00002   0.00002   2.11373
    A7        1.94108   0.00001   0.00000   0.00004   0.00004   1.94112
    A8        2.15491  -0.00001   0.00000  -0.00016  -0.00016   2.15475
    A9        2.18719   0.00000   0.00000   0.00012   0.00012   2.18731
   A10        2.16056   0.00001   0.00000   0.00004   0.00004   2.16060
   A11        2.13949   0.00000   0.00000  -0.00002  -0.00002   2.13946
   A12        1.98314  -0.00001   0.00000  -0.00002  -0.00002   1.98312
   A13        1.59075   0.00000   0.00000   0.00000   0.00000   1.59075
   A14        2.90313  -0.00005   0.00000  -0.00644  -0.00688   2.89626
   A15        2.89746   0.00004   0.00000   0.00766   0.00723   2.90468
    D1        0.00004   0.00000   0.00000  -0.00002  -0.00002   0.00002
    D2        3.14158   0.00000   0.00000   0.00009   0.00009  -3.14152
    D3        3.14087   0.00001   0.00000   0.00030   0.00030   3.14117
    D4       -0.00077   0.00002   0.00000   0.00041   0.00041  -0.00037
    D5        0.00066  -0.00002   0.00000  -0.00048  -0.00048   0.00018
    D6       -3.14037  -0.00001   0.00000  -0.00056  -0.00056  -3.14092
    D7        3.14153   0.00000   0.00000  -0.00017  -0.00017   3.14136
    D8        0.00051   0.00000   0.00000  -0.00025  -0.00025   0.00026
    D9        0.00055  -0.00001   0.00000  -0.00019  -0.00019   0.00036
   D10       -3.14110  -0.00001   0.00000  -0.00009  -0.00009  -3.14118
   D11        3.14122   0.00001   0.00000   0.00010   0.00010   3.14132
   D12       -0.00023   0.00001   0.00000   0.00033   0.00033   0.00010
   D13       -0.00096   0.00000   0.00000   0.00019   0.00019  -0.00078
   D14        3.14078   0.00001   0.00000   0.00041   0.00041   3.14119
   D15        1.48158   0.00001   0.00000  -0.04842  -0.04842   1.43316
   D16       -1.74477   0.00003   0.00000   0.07429   0.07429  -1.67048
   D17       -1.65936   0.00001   0.00000  -0.04851  -0.04851  -1.70787
   D18        1.39748   0.00003   0.00000   0.07420   0.07420   1.47167
   D19        3.14156   0.00000   0.00000   0.00014   0.00014  -3.14148
   D20       -0.00017   0.00000   0.00000  -0.00009  -0.00009  -0.00026
         Item               Value     Threshold  Converged?
 Maximum Force            0.000046     0.000450     YES
 RMS     Force            0.000013     0.000300     YES
 Maximum Displacement     0.030080     0.001800     NO 
 RMS     Displacement     0.007135     0.001200     NO 
 Predicted change in Energy=-1.940405D-06
 GradGradGradGradGradGradGradGradGradGradGradGradGradGradGradGradGradGrad

 1|1|UNPC-LAPTOP-5JS4LN2H|Freq|RwB97XD|6-311+G(d,p)|C3H5Be1N1S1(2+)|SOU
 MYO|02-Oct-2021|0||#N Geom=AllCheck Guess=TCheck SCRF=Check GenChk RwB
 97XD/6-311+G(d,p) Freq||Thiazole-Be(2+)@H2||2,1|C,-0.4037415833,1.2312
 363141,0.0047054139|C,0.938947463,1.1371630162,0.0033930783|H,-0.40092
 99047,-2.0833553276,-0.0338670537|H,-0.9813368948,2.1465751171,0.01513
 27177|H,1.6593629294,1.9445696851,0.012396881|N,-1.03950771,-0.0239290
 471,-0.0103160428|H,-4.1732116419,-0.347375619,-0.4054434826|H,-4.1605
 23831,-0.4593211659,0.3748935557|C,-0.1334201528,-1.0329151423,-0.0217
 531317|S,1.4474773623,-0.5102152752,-0.0152563074|Be,-2.5761670363,-0.
 2018495554,-0.0138356286||Version=IA32W-G09RevA.02|State=1-A|HF=-584.2
 639373|RMSD=1.044e-009|RMSF=2.891e-005|ZeroPoint=0.074081|Thermal=0.08
 08509|Dipole=-5.8772281,-0.462874,-0.0087541|DipoleDeriv=0.2092291,-0.
 1405294,-0.0018158,0.2931058,0.0807444,0.0018053,0.0061864,0.001563,-0
 .0302944,-0.1628074,0.1731426,0.0019239,-0.0480128,0.0139352,0.0010938
 ,-0.0010824,0.0014348,-0.1055155,0.0914018,-0.033761,-0.0002879,0.0145
 185,0.2399218,0.0006455,0.0001547,0.0006617,0.1864166,0.0695955,0.0144
 295,0.0000017,-0.0288778,0.1877322,-0.0001252,-0.0005646,0.0000389,0.1
 959553,0.2102701,0.0983197,0.001114,0.0741426,0.1913519,-0.0002184,0.0
 004681,-0.0002439,0.2090175,-1.666445,0.042942,-0.0001119,0.1622305,-0
 .3752763,-0.0021254,0.0005266,-0.0022616,-0.262529,0.0639294,-0.032308
 ,0.1728907,-0.0629163,0.1038039,0.0154536,0.3554429,0.0363688,0.165872
 8,0.0478808,0.0155262,-0.1715617,0.0479988,0.1225685,-0.0277748,-0.354
 2424,-0.0487588,0.1654415,0.9106069,-0.028326,0.0003418,-0.3422784,-0.
 0828084,-0.0007367,-0.0060395,-0.0007713,-0.0212569,0.1681421,-0.19617
 05,-0.0023166,-0.2423668,0.4365937,0.0000756,-0.0019253,0.0001923,0.42
 80497,2.0581968,0.086735,-0.0001782,0.1324558,1.081433,0.0119067,0.001
 0756,0.0117761,1.0688425|Polar=79.8466758,0.7203983,59.3527962,0.04710
 7,0.0393705,35.8698022|PG=C01 [X(C3H5Be1N1S1)]|NImag=0||0.78564669,-0.
 15296135,0.67364038,-0.00177069,0.00637298,0.12347324,-0.45970744,0.04
 318686,0.00059359,0.79223918,0.01468874,-0.10483144,-0.00058348,0.1511
 5099,0.54860237,0.00026087,-0.00054252,-0.05639624,0.00164236,0.005109
 68,0.09788459,-0.00477972,0.00265911,0.00002849,-0.00686024,-0.0023266
 4,-0.00002800,0.07739417,0.00447814,0.00097133,-0.00003620,-0.00059804
 ,0.00213811,-0.00000652,0.07543776,0.34518725,0.00004937,-0.00003991,0
 .00423447,-0.00001615,-0.00000946,0.00290780,0.00088172,0.00374896,0.0
 2083527,-0.15065777,0.14297831,0.00162912,-0.00617559,0.02265211,0.000
 25627,0.00102336,-0.00041747,-0.00000500,0.14848021,0.13666171,-0.2652
 9440,-0.00267606,-0.00288184,0.00546535,0.00000027,0.00074637,-0.00030
 367,-0.00002202,-0.14040736,0.27803014,0.00154556,-0.00266822,-0.03136
 301,-0.00003315,-0.00000305,0.00569106,0.00000873,-0.00002241,0.001566
 46,-0.00159301,0.00292602,0.02255630,-0.00627154,-0.01978383,-0.000227
 82,-0.19308317,-0.15589845,-0.00173901,0.00134823,-0.00021449,-0.00000
 087,0.00047146,0.00023883,0.00000192,0.19338961,0.00552946,0.00928152,
 0.00009671,-0.15865014,-0.22421171,-0.00217721,-0.00099662,0.00016451,
 -0.00001771,-0.00032126,0.00021280,0.00004304,0.16031387,0.22764883,0.
 00005902,0.00010720,0.00060679,-0.00177020,-0.00217678,-0.02975800,-0.
 00001253,-0.00001846,0.00170455,-0.00000365,0.00004275,-0.00355997,0.0
 0178892,0.00228904,0.02336825,-0.12628290,-0.03930737,-0.00042175,-0.0
 6035347,-0.01464341,-0.00018624,0.01042699,-0.00637495,-0.00005676,0.0
 1373542,0.01137497,0.00013631,-0.00435679,0.00423991,0.00004143,0.6461
 6238,-0.05423632,-0.20540600,-0.00175368,-0.06488619,-0.01097627,-0.00
 026426,0.02733382,-0.00984060,-0.00005404,-0.02232917,-0.01504820,-0.0
 0011999,-0.00136663,0.00336127,-0.00004405,-0.02682101,0.50210728,-0.0
 0065894,-0.00178060,-0.05835392,-0.00078569,-0.00018874,0.00744189,0.0
 0032117,-0.00007359,-0.00375458,-0.00025322,-0.00011943,-0.00453056,-0
 .00001123,-0.00004510,0.00747061,-0.00004938,0.00484134,0.10319620,-0.
 00019982,0.00008493,0.00000774,0.00014085,-0.00025760,0.00000388,-0.00
 000141,-0.00002142,0.00003680,-0.00000647,0.00002461,0.00005055,-0.000
 02161,0.00000391,0.00000264,0.00132318,-0.00021608,-0.00011439,0.04029
 248,0.00009702,0.00016483,-0.00025677,-0.00005323,-0.00002978,0.000051
 72,-0.00000548,0.00000461,0.00004264,-0.00001690,0.00005584,-0.0000275
 6,0.00000488,0.00001703,0.00003346,-0.00032758,0.00058700,0.00007442,0
 .00359277,0.00896803,-0.00013416,-0.00119214,0.00003567,0.00028981,0.0
 0039525,0.00000077,-0.00005830,0.00013864,0.00002756,0.00001029,-0.000
 15095,0.00003299,-0.00001533,-0.00012278,-0.00000762,0.00204642,0.0003
 1101,0.00037978,0.00947590,-0.03932599,0.28191368,-0.00020372,0.000135
 29,-0.00009465,0.00013294,-0.00027359,0.00000420,0.00001141,-0.0000196
 8,-0.00003169,-0.00002173,0.00002884,-0.00005098,-0.00002051,0.0000066
 5,0.00000970,0.00125415,-0.00023993,0.00012700,-0.00687736,0.00094010,
 -0.01088479,0.03985387,-0.00004691,-0.00026430,0.00024861,0.00011906,-
 0.00000022,-0.00005017,0.00000286,0.00005329,-0.00004623,0.00000276,0.
 00002005,0.00002025,-0.00000301,-0.00001880,-0.00003425,0.00055246,0.0
 0056170,0.00000510,-0.00099427,-0.00812773,0.03885183,0.00476402,0.009
 31667,0.00015231,0.00118167,0.00002552,-0.00029230,-0.00038672,-0.0000
 0988,0.00005375,-0.00013978,0.00003223,-0.00000687,0.00015179,0.000031
 46,0.00001624,0.00012196,0.00000327,-0.00206673,-0.00020333,0.00036844
 ,0.00164043,0.04037839,-0.27871358,-0.00001797,-0.04055798,0.28190956,
 0.00617861,0.02936581,0.00030162,-0.00249509,-0.04408940,-0.00051692,-
 0.08056916,-0.07540411,-0.00089665,-0.00434957,-0.00425510,-0.00005024
 ,-0.00149774,0.00296385,0.00003614,-0.20000114,0.12264516,0.00138412,-
 0.00040604,0.00008010,-0.00080099,-0.00036119,-0.00033634,0.00078728,0
 .54967835,-0.00606789,-0.08832112,-0.00111926,-0.00661717,-0.04549587,
 -0.00061769,-0.08413499,-0.33691925,-0.00356952,-0.00408228,-0.0017740
 8,-0.00004948,0.00649015,-0.00425578,-0.00007260,0.11000515,-0.2338633
 6,-0.00205185,0.00007693,-0.00027303,0.00099414,0.00004295,0.00015040,
 -0.00100967,0.03400384,0.77807226,-0.00004226,-0.00113205,0.00972387,-
 0.00008311,-0.00060102,0.00695705,-0.00099063,-0.00357718,-0.02779326,
 -0.00004967,-0.00005386,0.00244558,0.00007441,-0.00006617,0.00175723,0
 .00115705,-0.00197616,-0.05814575,0.00005197,0.00022559,0.00001969,0.0
 0002196,-0.00021591,0.00003517,0.00056615,0.00774376,0.10726711,-0.030
 11612,0.00492158,0.00004589,-0.06733499,0.02993043,0.00031518,0.001471
 46,0.00122718,0.00002177,-0.00352595,-0.00071544,-0.00000402,0.0104533
 5,-0.01226528,-0.00013391,-0.07817324,0.04391473,0.00049961,0.00004128
 ,-0.00009806,0.00043042,0.00002126,0.00008432,-0.00043190,-0.23844779,
 -0.05723269,-0.00074738,0.40148908,0.06452968,-0.02132464,-0.00029866,
 0.04182331,-0.16589346,-0.00145827,-0.02069565,0.00025556,-0.00000491,
 0.00273585,0.00192691,-0.00005182,0.01027989,-0.01221449,-0.00011919,-
 0.01722431,-0.01846557,-0.00044353,0.00027667,0.00000789,0.00001567,0.
 00027860,0.00011608,-0.00001215,-0.07310289,-0.07043711,-0.00036242,-0
 .01381061,0.28783676,0.00073619,-0.00035579,0.00851609,0.00046771,-0.0
 0147838,-0.03473104,-0.00023531,0.00000652,-0.00012601,0.00003184,-0.0
 0004829,0.00615100,0.00011662,-0.00011509,-0.00230906,-0.00021126,-0.0
 0042466,0.01716812,0.00002442,-0.00009270,0.00002067,-0.00004593,0.000
 08179,0.00001051,-0.00091075,-0.00032987,-0.04231629,-0.00004160,0.002
 77657,0.04521861,-0.01360628,-0.01127935,-0.00009154,0.00349702,-0.000
 93318,-0.00001257,0.00053490,0.00190708,0.00001745,0.00102664,-0.00081
 559,-0.00001167,-0.00041129,-0.00082436,-0.00001756,-0.20373457,-0.023
 79837,-0.00045905,-0.03428508,-0.00421362,-0.00035926,-0.03378912,-0.0
 0414497,0.00016576,-0.02772924,0.00751600,0.00004152,0.00412164,0.0049
 0945,0.00006808,0.30437539,-0.01267227,0.00138384,0.00000581,-0.002593
 61,-0.00476708,-0.00004503,0.00197944,-0.00171113,-0.00002782,-0.00079
 458,-0.00329073,-0.00004678,-0.00006120,0.00001482,-0.00000711,-0.0214
 7386,-0.01301725,-0.00021801,-0.00257046,-0.00137471,0.00008532,-0.005
 66325,-0.00180714,0.00047581,0.00812907,0.00311696,0.00001542,0.004043
 83,-0.00180793,-0.00002012,0.03167690,0.02326035,-0.00019727,0.0000493
 9,-0.00050248,-0.00001287,-0.00007731,0.00001199,0.00003091,-0.0000199
 9,0.00036553,-0.00001609,-0.00005023,0.00097869,-0.00000384,-0.0000066
 7,0.00072396,-0.00038909,-0.00031216,-0.01124021,-0.01117995,-0.001103
 20,-0.00370960,0.01096316,0.00169696,-0.00369269,0.00010024,0.00008203
 ,0.00004962,0.00004595,-0.00004130,0.00239741,0.00065885,-0.00021751,0
 .01461778||0.00000166,-0.00000437,0.00003436,-0.00000164,0.00000809,-0
 .00002388,0.00001027,0.00000387,0.00001238,-0.00001207,-0.00000359,-0.
 00001020,-0.00000794,0.00001356,-0.00001624,-0.00001160,-0.00005493,-0
 .00002135,-0.00001619,0.00000789,0.00001932,0.00000968,-0.00009383,-0.
 00000082,0.00000675,0.00001814,0.00003447,0.00001012,0.00001505,0.0000
 0804,0.00001095,0.00009012,-0.00003608|||@


 A SUCCESSFUL PURSUIT OF SCIENCE MAKES A MAN THE
 BENEFACTOR OF ALL MANKIND OF EVERY AGE.
   --  JOSEPH PRIESTLEY, "EXPERIMENTS AND
 OBSERVATIONS ON DIFFERENT KINDS OF AIR", 1774
 Job cpu time:  0 days  0 hours 11 minutes 15.0 seconds.
 File lengths (MBytes):  RWF=     40 Int=      0 D2E=      0 Chk=      3 Scr=      1
 Normal termination of Gaussian 09 at Sat Oct 02 12:48:21 2021.
