 Entering Link 1 = C:\G09W\l1.exe PID=     11576.
  
 Copyright (c) 1988,1990,1992,1993,1995,1998,2003,2009, Gaussian, Inc.
                  All Rights Reserved.
  
 This is part of the Gaussian(R) 09 program.  It is based on
 the Gaussian(R) 03 system (copyright 2003, Gaussian, Inc.),
 the Gaussian(R) 98 system (copyright 1998, Gaussian, Inc.),
 the Gaussian(R) 94 system (copyright 1995, Gaussian, Inc.),
 the Gaussian 92(TM) system (copyright 1992, Gaussian, Inc.),
 the Gaussian 90(TM) system (copyright 1990, Gaussian, Inc.),
 the Gaussian 88(TM) system (copyright 1988, Gaussian, Inc.),
 the Gaussian 86(TM) system (copyright 1986, Carnegie Mellon
 University), and the Gaussian 82(TM) system (copyright 1983,
 Carnegie Mellon University). Gaussian is a federally registered
 trademark of Gaussian, Inc.
  
 This software contains proprietary and confidential information,
 including trade secrets, belonging to Gaussian, Inc.
  
 This software is provided under written license and may be
 used, copied, transmitted, or stored only in accord with that
 written license.
  
 The following legend is applicable only to US Government
 contracts under FAR:
  
                    RESTRICTED RIGHTS LEGEND
  
 Use, reproduction and disclosure by the US Government is
 subject to restrictions as set forth in subparagraphs (a)
 and (c) of the Commercial Computer Software - Restricted
 Rights clause in FAR 52.227-19.
  
 Gaussian, Inc.
 340 Quinnipiac St., Bldg. 40, Wallingford CT 06492
  
  
 ---------------------------------------------------------------
 Warning -- This program may not be used in any manner that
 competes with the business of Gaussian, Inc. or will provide
 assistance to any competitor of Gaussian, Inc.  The licensee
 of this program is prohibited from giving any competitor of
 Gaussian, Inc. access to this program.  By using this program,
 the user acknowledges that Gaussian, Inc. is engaged in the
 business of creating and licensing software in the field of
 computational chemistry and represents and warrants to the
 licensee that it is not a competitor of Gaussian, Inc. and that
 it will not use this program in any manner prohibited above.
 ---------------------------------------------------------------
  

 Cite this work as:
 Gaussian 09, Revision A.02,
 M. J. Frisch, G. W. Trucks, H. B. Schlegel, G. E. Scuseria, 
 M. A. Robb, J. R. Cheeseman, G. Scalmani, V. Barone, B. Mennucci, 
 G. A. Petersson, H. Nakatsuji, M. Caricato, X. Li, H. P. Hratchian, 
 A. F. Izmaylov, J. Bloino, G. Zheng, J. L. Sonnenberg, M. Hada, 
 M. Ehara, K. Toyota, R. Fukuda, J. Hasegawa, M. Ishida, T. Nakajima, 
 Y. Honda, O. Kitao, H. Nakai, T. Vreven, J. A. Montgomery, Jr., 
 J. E. Peralta, F. Ogliaro, M. Bearpark, J. J. Heyd, E. Brothers, 
 K. N. Kudin, V. N. Staroverov, R. Kobayashi, J. Normand, 
 K. Raghavachari, A. Rendell, J. C. Burant, S. S. Iyengar, J. Tomasi, 
 M. Cossi, N. Rega, J. M. Millam, M. Klene, J. E. Knox, J. B. Cross, 
 V. Bakken, C. Adamo, J. Jaramillo, R. Gomperts, R. E. Stratmann, 
 O. Yazyev, A. J. Austin, R. Cammi, C. Pomelli, J. W. Ochterski, 
 R. L. Martin, K. Morokuma, V. G. Zakrzewski, G. A. Voth, 
 P. Salvador, J. J. Dannenberg, S. Dapprich, A. D. Daniels, 
 O. Farkas, J. B. Foresman, J. V. Ortiz, J. Cioslowski, 
 and D. J. Fox, Gaussian, Inc., Wallingford CT, 2009.
 
 ******************************************
 Gaussian 09:  IA32W-G09RevA.02 11-Jun-2009
                01-Oct-2021 
 ******************************************
 %mem=98MW
 ------------------------------
 # opt freq wb97xd/6-311+g(d,p)
 ------------------------------
 1/14=-1,18=20,19=15,26=3,38=1/1,3;
 2/9=110,12=2,17=6,18=5,40=1/2;
 3/5=4,6=6,7=111,11=2,16=1,25=1,30=1,71=1,74=-58/1,2,3;
 4//1;
 5/5=2,38=5/2;
 6/7=2,8=2,9=2,10=2,28=1/1;
 7//1,2,3,16;
 1/14=-1,18=20,19=15/3(2);
 2/9=110/2;
 99//99;
 2/9=110/2;
 3/5=4,6=6,7=111,11=2,16=1,25=1,30=1,71=1,74=-58/1,2,3;
 4/5=5,16=3/1;
 5/5=2,38=5/2;
 7//1,2,3,16;
 1/14=-1,18=20,19=15/3(-5);
 2/9=110/2;
 6/7=2,8=2,9=2,10=2,19=2,28=1/1;
 99/9=1/99;
 -------------------
 Thiazole-Be(2+)@2H2
 -------------------
 Symbolic Z-matrix:
 Charge =  2 Multiplicity = 1
 C                    -0.28036   1.23627   0.04802 
 C                     1.05972   1.13715   0.0396 
 H                    -0.30105  -2.066    -0.07582 
 H                    -0.84885   2.15489   0.09154 
 H                     1.78494   1.93899   0.06835 
 N                    -0.928    -0.00949   0.00563 
 H                    -3.08459  -1.58713   0.60041 
 H                    -3.49191  -1.49115  -0.05898 
 H                    -3.32438   1.08807  -0.59621 
 H                    -3.76845   0.8459   -0.00138 
 C                    -0.02894  -1.01869  -0.03397 
 S                     1.55717  -0.51273  -0.02343 
 Be                   -2.47172  -0.18547  -0.00356 
 

 GradGradGradGradGradGradGradGradGradGradGradGradGradGradGradGradGradGrad
 Berny optimization.
 Initialization pass.
                           ----------------------------
                           !    Initial Parameters    !
                           ! (Angstroms and Degrees)  !
 --------------------------                            --------------------------
 ! Name  Definition              Value          Derivative Info.                !
 --------------------------------------------------------------------------------
 ! R1    R(1,2)                  1.3438         estimate D2E/DX2                !
 ! R2    R(1,4)                  1.0812         estimate D2E/DX2                !
 ! R3    R(1,6)                  1.4047         estimate D2E/DX2                !
 ! R4    R(2,5)                  1.0815         estimate D2E/DX2                !
 ! R5    R(2,12)                 1.7244         estimate D2E/DX2                !
 ! R6    R(3,11)                 1.0829         estimate D2E/DX2                !
 ! R7    R(6,11)                 1.3522         estimate D2E/DX2                !
 ! R8    R(6,13)                 1.5537         estimate D2E/DX2                !
 ! R9    R(7,8)                  0.781          estimate D2E/DX2                !
 ! R10   R(7,13)                 1.6447         estimate D2E/DX2                !
 ! R11   R(8,13)                 1.6579         estimate D2E/DX2                !
 ! R12   R(9,10)                 0.7808         estimate D2E/DX2                !
 ! R13   R(9,13)                 1.6432         estimate D2E/DX2                !
 ! R14   R(10,13)                1.6569         estimate D2E/DX2                !
 ! R15   R(11,12)                1.6649         estimate D2E/DX2                !
 ! A1    A(2,1,4)              125.9647         estimate D2E/DX2                !
 ! A2    A(2,1,6)              113.2151         estimate D2E/DX2                !
 ! A3    A(4,1,6)              120.8178         estimate D2E/DX2                !
 ! A4    A(1,2,5)              127.8681         estimate D2E/DX2                !
 ! A5    A(1,2,12)             111.0074         estimate D2E/DX2                !
 ! A6    A(5,2,12)             121.1244         estimate D2E/DX2                !
 ! A7    A(1,6,11)             110.8691         estimate D2E/DX2                !
 ! A8    A(1,6,13)             123.9666         estimate D2E/DX2                !
 ! A9    A(11,6,13)            125.163          estimate D2E/DX2                !
 ! A10   A(3,11,6)             123.7715         estimate D2E/DX2                !
 ! A11   A(3,11,12)            122.2458         estimate D2E/DX2                !
 ! A12   A(6,11,12)            113.9814         estimate D2E/DX2                !
 ! A13   A(2,12,11)             90.9268         estimate D2E/DX2                !
 ! A14   A(6,13,7)             117.6832         estimate D2E/DX2                !
 ! A15   A(6,13,8)             134.4893         estimate D2E/DX2                !
 ! A16   A(6,13,9)             115.4612         estimate D2E/DX2                !
 ! A17   A(6,13,10)            134.9973         estimate D2E/DX2                !
 ! A18   A(7,13,9)             126.8402         estimate D2E/DX2                !
 ! A19   A(7,13,10)            103.7905         estimate D2E/DX2                !
 ! A20   A(8,13,9)             106.2013         estimate D2E/DX2                !
 ! A21   A(8,13,10)             90.4974         estimate D2E/DX2                !
 ! D1    D(4,1,2,5)             -0.3811         estimate D2E/DX2                !
 ! D2    D(4,1,2,12)           179.516          estimate D2E/DX2                !
 ! D3    D(6,1,2,5)           -179.8268         estimate D2E/DX2                !
 ! D4    D(6,1,2,12)             0.0704         estimate D2E/DX2                !
 ! D5    D(2,1,6,11)            -0.0043         estimate D2E/DX2                !
 ! D6    D(2,1,6,13)          -179.6236         estimate D2E/DX2                !
 ! D7    D(4,1,6,11)          -179.4818         estimate D2E/DX2                !
 ! D8    D(4,1,6,13)             0.8988         estimate D2E/DX2                !
 ! D9    D(1,2,12,11)           -0.0911         estimate D2E/DX2                !
 ! D10   D(5,2,12,11)          179.814          estimate D2E/DX2                !
 ! D11   D(1,6,11,3)          -179.6683         estimate D2E/DX2                !
 ! D12   D(1,6,11,12)           -0.0676         estimate D2E/DX2                !
 ! D13   D(13,6,11,3)           -0.0544         estimate D2E/DX2                !
 ! D14   D(13,6,11,12)         179.5462         estimate D2E/DX2                !
 ! D15   D(1,6,13,7)          -153.4473         estimate D2E/DX2                !
 ! D16   D(1,6,13,8)           179.5044         estimate D2E/DX2                !
 ! D17   D(1,6,13,9)            25.2255         estimate D2E/DX2                !
 ! D18   D(1,6,13,10)            1.411          estimate D2E/DX2                !
 ! D19   D(11,6,13,7)           26.9878         estimate D2E/DX2                !
 ! D20   D(11,6,13,8)           -0.0606         estimate D2E/DX2                !
 ! D21   D(11,6,13,9)         -154.3395         estimate D2E/DX2                !
 ! D22   D(11,6,13,10)        -178.1539         estimate D2E/DX2                !
 ! D23   D(3,11,12,2)          179.6987         estimate D2E/DX2                !
 ! D24   D(6,11,12,2)            0.0912         estimate D2E/DX2                !
 --------------------------------------------------------------------------------
 Trust Radius=3.00D-01 FncErr=1.00D-07 GrdErr=1.00D-06
 Number of steps in this run=  70 maximum allowed number of steps= 100.
 GradGradGradGradGradGradGradGradGradGradGradGradGradGradGradGradGradGrad

                          Input orientation:                          
 ---------------------------------------------------------------------
 Center     Atomic      Atomic             Coordinates (Angstroms)
 Number     Number       Type             X           Y           Z
 ---------------------------------------------------------------------
      1          6           0       -0.280363    1.236271    0.048016
      2          6           0        1.059724    1.137149    0.039597
      3          1           0       -0.301053   -2.066000   -0.075822
      4          1           0       -0.848846    2.154891    0.091537
      5          1           0        1.784935    1.938993    0.068345
      6          7           0       -0.928004   -0.009486    0.005629
      7          1           0       -3.084590   -1.587130    0.600410
      8          1           0       -3.491912   -1.491154   -0.058979
      9          1           0       -3.324380    1.088067   -0.596207
     10          1           0       -3.768452    0.845899   -0.001381
     11          6           0       -0.028938   -1.018687   -0.033966
     12         16           0        1.557167   -0.512730   -0.023433
     13          4           0       -2.471720   -0.185470   -0.003563
 ---------------------------------------------------------------------
                    Distance matrix (angstroms):
                    1          2          3          4          5
     1  C    0.000000
     2  C    1.343774   0.000000
     3  H    3.304657   3.482126   0.000000
     4  H    1.081171   2.163593   4.259578   0.000000
     5  H    2.181671   1.081532   4.517975   2.642717   0.000000
     6  N    1.404687   2.294992   2.151500   2.167527   3.340740
     7  H    4.017514   4.991147   2.904253   4.388647   6.035637
     8  H    4.214777   5.256908   3.242270   4.505785   6.295017
     9  H    3.114968   4.430240   4.399937   2.781973   5.222146
    10  H    3.510213   4.837126   4.528527   3.200968   5.660373
    11  C    2.270412   2.416242   1.082896   3.280183   3.471091
    12  S    2.537839   1.724391   2.422473   3.594206   2.463990
    13  Be   2.612672   3.771244   2.872875   2.849571   4.757901
                    6          7          8          9         10
     6  N    0.000000
     7  H    2.737442   0.000000
     8  H    2.961948   0.780971   0.000000
     9  H    2.703599   2.940420   2.639898   0.000000
    10  H    2.966459   2.597970   2.354062   0.780809   0.000000
    11  C    1.352174   3.172155   3.495145   3.951514   4.178721
    12  S    2.535779   4.805146   5.143129   5.169151   5.496233
    13  Be   1.553742   1.644702   1.657912   1.643214   1.656877
                   11         12         13
    11  C    0.000000
    12  S    1.664882   0.000000
    13  Be   2.581155   4.042205   0.000000
 Stoichiometry    C3H7BeNS(2+)
 Framework group  C1[X(C3H7BeNS)]
 Deg. of freedom    33
 Full point group                 C1      NOp   1
 Largest Abelian subgroup         C1      NOp   1
 Largest concise Abelian subgroup C1      NOp   1
                         Standard orientation:                         
 ---------------------------------------------------------------------
 Center     Atomic      Atomic             Coordinates (Angstroms)
 Number     Number       Type             X           Y           Z
 ---------------------------------------------------------------------
      1          6           0       -0.280363    1.236271    0.048016
      2          6           0        1.059724    1.137149    0.039597
      3          1           0       -0.301053   -2.066000   -0.075822
      4          1           0       -0.848846    2.154891    0.091537
      5          1           0        1.784935    1.938993    0.068345
      6          7           0       -0.928004   -0.009486    0.005629
      7          1           0       -3.084590   -1.587130    0.600410
      8          1           0       -3.491912   -1.491154   -0.058979
      9          1           0       -3.324380    1.088067   -0.596207
     10          1           0       -3.768452    0.845899   -0.001381
     11          6           0       -0.028938   -1.018687   -0.033966
     12         16           0        1.557167   -0.512730   -0.023433
     13          4           0       -2.471720   -0.185470   -0.003563
 ---------------------------------------------------------------------
 Rotational constants (GHZ):      6.7273302      2.4029402      1.7806033
 Standard basis: 6-311+G(d,p) (5D, 7F)
 There are   182 symmetry adapted basis functions of A   symmetry.
 Integral buffers will be    262144 words long.
 Raffenetti 2 integral format.
 Two-electron integral symmetry is turned on.
   182 basis functions,   286 primitive gaussians,   188 cartesian basis functions
    25 alpha electrons       25 beta electrons
       nuclear repulsion energy       268.6967018068 Hartrees.
 NAtoms=   13 NActive=   13 NUniq=   13 SFac= 7.50D-01 NAtFMM=   80 NAOKFM=F Big=F
 Nuclear repulsion after empirical dispersion term =      268.6918277673 Hartrees.
 One-electron integrals computed using PRISM.
 NBasis=   182 RedAO= T  NBF=   182
 NBsUse=   182 1.00D-06 NBFU=   182
 Harris functional with IExCor= 4639 diagonalized for initial guess.
 ExpMin= 2.07D-02 ExpMax= 9.34D+04 ExpMxC= 3.17D+03 IAcc=3 IRadAn=         0 AccDes= 0.00D+00
 HarFok:  IExCor= 4639 AccDes= 0.00D+00 IRadAn=         0 IDoV= 1
 ScaDFX=  1.000000  1.000000  1.000000  1.000000
 FoFCou: FMM=F IPFlag=           0 FMFlag=      100000 FMFlg1=           0
         NFxFlg=           0 DoJE=T BraDBF=F KetDBF=T FulRan=T
         Omega=  0.000000  0.000000  1.000000  0.000000  0.000000 ICntrl=     500 IOpCl=  0
         NMat0=    1 NMatS0=    1 NMatT0=    0 NMatD0=    1 NMtDS0=    0 NMtDT0=    0
         I1Cent=           4 NGrid=           0.
 Petite list used in FoFCou.
 Initial guess orbital symmetries:
       Occupied  (A) (A) (A) (A) (A) (A) (A) (A) (A) (A) (A) (A)
                 (A) (A) (A) (A) (A) (A) (A) (A) (A) (A) (A) (A)
                 (A)
       Virtual   (A) (A) (A) (A) (A) (A) (A) (A) (A) (A) (A) (A)
                 (A) (A) (A) (A) (A) (A) (A) (A) (A) (A) (A) (A)
                 (A) (A) (A) (A) (A) (A) (A) (A) (A) (A) (A) (A)
                 (A) (A) (A) (A) (A) (A) (A) (A) (A) (A) (A) (A)
                 (A) (A) (A) (A) (A) (A) (A) (A) (A) (A) (A) (A)
                 (A) (A) (A) (A) (A) (A) (A) (A) (A) (A) (A) (A)
                 (A) (A) (A) (A) (A) (A) (A) (A) (A) (A) (A) (A)
                 (A) (A) (A) (A) (A) (A) (A) (A) (A) (A) (A) (A)
                 (A) (A) (A) (A) (A) (A) (A) (A) (A) (A) (A) (A)
                 (A) (A) (A) (A) (A) (A) (A) (A) (A) (A) (A) (A)
                 (A) (A) (A) (A) (A) (A) (A) (A) (A) (A) (A) (A)
                 (A) (A) (A) (A) (A) (A) (A) (A) (A) (A) (A) (A)
                 (A) (A) (A) (A) (A) (A) (A) (A) (A) (A) (A) (A)
                 (A)
 The electronic state of the initial guess is 1-A.
 Requested convergence on RMS density matrix=1.00D-08 within 128 cycles.
 Requested convergence on MAX density matrix=1.00D-06.
 Requested convergence on             energy=1.00D-06.
 No special actions if energy rises.
 FoFJK:  IHMeth= 1 ICntrl=     0 DoSepK=T KAlg= 1 I1Cent= 0 FoldK=F
 FoFJK:  IHMeth= 1 ICntrl=     0 DoSepK=T KAlg= 1 I1Cent= 0 FoldK=F
 FoFJK:  IHMeth= 1 ICntrl=     0 DoSepK=T KAlg= 1 I1Cent= 0 FoldK=F
 FoFJK:  IHMeth= 1 ICntrl=     0 DoSepK=T KAlg= 1 I1Cent= 0 FoldK=F
 FoFJK:  IHMeth= 1 ICntrl=     0 DoSepK=T KAlg= 1 I1Cent= 0 FoldK=F
 FoFJK:  IHMeth= 1 ICntrl=     0 DoSepK=T KAlg= 1 I1Cent= 0 FoldK=F
 FoFJK:  IHMeth= 1 ICntrl=     0 DoSepK=T KAlg= 1 I1Cent= 0 FoldK=F
 FoFJK:  IHMeth= 1 ICntrl=     0 DoSepK=T KAlg= 1 I1Cent= 0 FoldK=F
 FoFJK:  IHMeth= 1 ICntrl=     0 DoSepK=T KAlg= 1 I1Cent= 0 FoldK=F
 FoFJK:  IHMeth= 1 ICntrl=     0 DoSepK=T KAlg= 1 I1Cent= 0 FoldK=F
 FoFJK:  IHMeth= 1 ICntrl=     0 DoSepK=T KAlg= 1 I1Cent= 0 FoldK=F
 FoFJK:  IHMeth= 1 ICntrl=     0 DoSepK=T KAlg= 1 I1Cent= 0 FoldK=F
 FoFJK:  IHMeth= 1 ICntrl=     0 DoSepK=T KAlg= 1 I1Cent= 0 FoldK=F
 FoFJK:  IHMeth= 1 ICntrl=     0 DoSepK=T KAlg= 1 I1Cent= 0 FoldK=F
 SCF Done:  E(RwB97XD) =  -585.474357297     A.U. after   14 cycles
             Convg  =    0.5254D-08             -V/T =  2.0021

 **********************************************************************

            Population analysis using the SCF density.

 **********************************************************************

 Orbital symmetries:
       Occupied  (A) (A) (A) (A) (A) (A) (A) (A) (A) (A) (A) (A)
                 (A) (A) (A) (A) (A) (A) (A) (A) (A) (A) (A) (A)
                 (A)
       Virtual   (A) (A) (A) (A) (A) (A) (A) (A) (A) (A) (A) (A)
                 (A) (A) (A) (A) (A) (A) (A) (A) (A) (A) (A) (A)
                 (A) (A) (A) (A) (A) (A) (A) (A) (A) (A) (A) (A)
                 (A) (A) (A) (A) (A) (A) (A) (A) (A) (A) (A) (A)
                 (A) (A) (A) (A) (A) (A) (A) (A) (A) (A) (A) (A)
                 (A) (A) (A) (A) (A) (A) (A) (A) (A) (A) (A) (A)
                 (A) (A) (A) (A) (A) (A) (A) (A) (A) (A) (A) (A)
                 (A) (A) (A) (A) (A) (A) (A) (A) (A) (A) (A) (A)
                 (A) (A) (A) (A) (A) (A) (A) (A) (A) (A) (A) (A)
                 (A) (A) (A) (A) (A) (A) (A) (A) (A) (A) (A) (A)
                 (A) (A) (A) (A) (A) (A) (A) (A) (A) (A) (A) (A)
                 (A) (A) (A) (A) (A) (A) (A) (A) (A) (A) (A) (A)
                 (A) (A) (A) (A) (A) (A) (A) (A) (A) (A) (A) (A)
                 (A)
 The electronic state is 1-A.
 Alpha  occ. eigenvalues --  -89.41408 -14.85769 -10.72738 -10.67734 -10.65654
 Alpha  occ. eigenvalues --   -8.45334  -6.40107  -6.39672  -6.39587  -4.63076
 Alpha  occ. eigenvalues --   -1.45560  -1.27334  -1.21271  -1.06366  -1.05502
 Alpha  occ. eigenvalues --   -1.02872  -1.00755  -0.99360  -0.88239  -0.88189
 Alpha  occ. eigenvalues --   -0.85688  -0.83665  -0.78584  -0.73259  -0.68454
 Alpha virt. eigenvalues --   -0.38207  -0.31678  -0.30671  -0.28118  -0.26688
 Alpha virt. eigenvalues --   -0.24925  -0.22335  -0.21417  -0.19293  -0.17807
 Alpha virt. eigenvalues --   -0.16776  -0.16273  -0.15266  -0.14673  -0.13283
 Alpha virt. eigenvalues --   -0.13204  -0.12512  -0.10292  -0.09872  -0.09666
 Alpha virt. eigenvalues --   -0.08521  -0.08241  -0.07930  -0.06838  -0.06323
 Alpha virt. eigenvalues --   -0.05461  -0.04312  -0.03746  -0.03073  -0.02550
 Alpha virt. eigenvalues --   -0.02288  -0.00972   0.00831   0.01134   0.02139
 Alpha virt. eigenvalues --    0.02510   0.03177   0.03817   0.04986   0.06235
 Alpha virt. eigenvalues --    0.07477   0.09082   0.11575   0.12989   0.14099
 Alpha virt. eigenvalues --    0.15242   0.17416   0.18879   0.19436   0.20828
 Alpha virt. eigenvalues --    0.22084   0.23093   0.27028   0.27960   0.30338
 Alpha virt. eigenvalues --    0.30909   0.32505   0.35150   0.36899   0.38187
 Alpha virt. eigenvalues --    0.40291   0.43978   0.45274   0.47101   0.48531
 Alpha virt. eigenvalues --    0.49509   0.50193   0.51833   0.56305   0.58631
 Alpha virt. eigenvalues --    0.59931   0.61790   0.62301   0.65568   0.68016
 Alpha virt. eigenvalues --    0.68799   0.70797   0.73883   0.75804   0.79723
 Alpha virt. eigenvalues --    0.80335   0.80943   0.83969   0.87595   0.95076
 Alpha virt. eigenvalues --    1.01106   1.03541   1.05168   1.05714   1.10818
 Alpha virt. eigenvalues --    1.19988   1.23888   1.28628   1.30046   1.32762
 Alpha virt. eigenvalues --    1.34586   1.35283   1.37187   1.39660   1.43482
 Alpha virt. eigenvalues --    1.43929   1.48401   1.49455   1.52071   1.54791
 Alpha virt. eigenvalues --    1.56388   1.58878   1.60002   1.64970   1.68253
 Alpha virt. eigenvalues --    1.70374   1.71992   1.73926   1.82505   1.84460
 Alpha virt. eigenvalues --    1.88690   1.92183   1.94674   1.95354   2.09689
 Alpha virt. eigenvalues --    2.12994   2.14472   2.21962   2.28240   2.34902
 Alpha virt. eigenvalues --    2.42861   2.45159   2.47058   2.51220   2.51661
 Alpha virt. eigenvalues --    2.52537   2.53672   2.56213   2.65085   2.67712
 Alpha virt. eigenvalues --    2.77618   2.79879   2.89536   2.98357   3.13814
 Alpha virt. eigenvalues --    3.28185   3.32519   3.54149   3.61059   3.82185
 Alpha virt. eigenvalues --    4.17478   4.66178   7.72008   8.00151  17.05257
 Alpha virt. eigenvalues --   17.20936  17.26965  23.46953  23.56358  23.98169
 Alpha virt. eigenvalues --   35.27289 188.96891
          Condensed to atoms (all electrons):
              1          2          3          4          5          6
     1  C    5.340676   0.386375   0.011713   0.383438  -0.019516   0.275061
     2  C    0.386375   5.294455  -0.006103   0.026498   0.377062  -0.120302
     3  H    0.011713  -0.006103   0.361459   0.000068  -0.000004  -0.025777
     4  H    0.383438   0.026498   0.000068   0.401256  -0.002050  -0.055879
     5  H   -0.019516   0.377062  -0.000004  -0.002050   0.333877   0.011216
     6  N    0.275061  -0.120302  -0.025777  -0.055879   0.011216   6.142020
     7  H   -0.003182   0.000707   0.000409  -0.000004   0.000000   0.011703
     8  H   -0.002368   0.000279   0.000267   0.000008   0.000000   0.011111
     9  H   -0.000873   0.011277  -0.000014   0.000377  -0.000001   0.014079
    10  H   -0.001640   0.008159  -0.000016  -0.000046   0.000000   0.013214
    11  C   -0.256598   0.126804   0.371217   0.023223  -0.007665   0.174032
    12  S    0.260269   0.089997   0.008614  -0.010983   0.005298  -0.088120
    13  Be  -0.033030  -0.065149   0.000083  -0.002052  -0.000091   0.329681
              7          8          9         10         11         12
     1  C   -0.003182  -0.002368  -0.000873  -0.001640  -0.256598   0.260269
     2  C    0.000707   0.000279   0.011277   0.008159   0.126804   0.089997
     3  H    0.000409   0.000267  -0.000014  -0.000016   0.371217   0.008614
     4  H   -0.000004   0.000008   0.000377  -0.000046   0.023223  -0.010983
     5  H    0.000000   0.000000  -0.000001   0.000000  -0.007665   0.005298
     6  N    0.011703   0.011111   0.014079   0.013214   0.174032  -0.088120
     7  H    0.422791   0.270912  -0.001045  -0.002316   0.005479   0.002449
     8  H    0.270912   0.423021  -0.002534  -0.003899   0.004865   0.001701
     9  H   -0.001045  -0.002534   0.422387   0.270852  -0.002793  -0.000565
    10  H   -0.002316  -0.003899   0.270852   0.424650  -0.002031  -0.000620
    11  C    0.005479   0.004865  -0.002793  -0.002031   5.880079   0.036853
    12  S    0.002449   0.001701  -0.000565  -0.000620   0.036853  15.278925
    13  Be   0.104378   0.105768   0.100906   0.104332  -0.132331   0.010584
             13
     1  C   -0.033030
     2  C   -0.065149
     3  H    0.000083
     4  H   -0.002052
     5  H   -0.000091
     6  N    0.329681
     7  H    0.104378
     8  H    0.105768
     9  H    0.100906
    10  H    0.104332
    11  C   -0.132331
    12  S    0.010584
    13  Be   3.070963
 Mulliken atomic charges:
              1
     1  C   -0.340325
     2  C   -0.130057
     3  H    0.278084
     4  H    0.236144
     5  H    0.301874
     6  N    0.307962
     7  H    0.187719
     8  H    0.190870
     9  H    0.187946
    10  H    0.189361
    11  C   -0.221132
    12  S    0.405596
    13  Be   0.405960
 Sum of Mulliken atomic charges =   2.00000
 Mulliken charges with hydrogens summed into heavy atoms:
              1
     1  C   -0.104181
     2  C    0.171816
     6  N    0.307962
    11  C    0.056951
    12  S    0.405596
    13  Be   1.161855
 Sum of Mulliken charges with hydrogens summed into heavy atoms =   2.00000
 Electronic spatial extent (au):  <R**2>=            648.9544
 Charge=              2.0000 electrons
 Dipole moment (field-independent basis, Debye):
    X=            -14.3681    Y=             -1.0623    Z=             -0.0358  Tot=             14.4073
 Quadrupole moment (field-independent basis, Debye-Ang):
   XX=             27.9052   YY=            -20.8192   ZZ=            -39.2675
   XY=              5.3166   XZ=              0.3053   YZ=             -0.8449
 Traceless Quadrupole moment (field-independent basis, Debye-Ang):
   XX=             38.6324   YY=            -10.0921   ZZ=            -28.5403
   XY=              5.3166   XZ=              0.3053   YZ=             -0.8449
 Octapole moment (field-independent basis, Debye-Ang**2):
  XXX=           -172.2701  YYY=             -2.3562  ZZZ=             -0.1805  XYY=            -17.4067
  XXY=             -6.3168  XXZ=             -1.1944  XZZ=             -5.1464  YZZ=             -2.2591
  YYZ=              0.7957  XYZ=              4.2980
 Hexadecapole moment (field-independent basis, Debye-Ang**3):
 XXXX=             80.2792 YYYY=           -168.9301 ZZZZ=            -44.1275 XXXY=             38.6938
 XXXZ=              5.5776 YYYX=             22.7292 YYYZ=             -1.5739 ZZZX=             -0.0624
 ZZZY=             -1.8645 XXYY=            -45.4295 XXZZ=            -88.9005 YYZZ=            -48.5369
 XXYZ=            -11.6068 YYXZ=             -0.8368 ZZXY=              0.4740
 N-N= 2.686918277673D+02 E-N=-1.899862428946D+03  KE= 5.842322586610D+02
 Calling FoFJK, ICntrl=      2127 FMM=F ISym2X=0 I1Cent= 0 IOpClX= 0 NMat=1 NMatS=1 NMatT=0.
 FoFJK:  IHMeth= 1 ICntrl=  2127 DoSepK=T KAlg= 1 I1Cent= 0 FoldK=F
 ***** Axes restored to original set *****
 -------------------------------------------------------------------
 Center     Atomic                   Forces (Hartrees/Bohr)
 Number     Number              X              Y              Z
 -------------------------------------------------------------------
      1        6          -0.003108877   -0.000724317    0.000076563
      2        6           0.002891740   -0.000537793   -0.000089434
      3        1          -0.000193772   -0.000412293   -0.000058079
      4        1          -0.000232537    0.000372874   -0.000007644
      5        1           0.000178016    0.000082751   -0.000013254
      6        7           0.003893969    0.001208414    0.000067179
      7        1          -0.001711403   -0.001116332   -0.001208004
      8        1           0.000164967   -0.001531031    0.001808790
      9        1          -0.001995759    0.000661837    0.001057143
     10        1          -0.000046864    0.001537500   -0.001739030
     11        6          -0.001165829   -0.000446737   -0.000047316
     12       16           0.001186478    0.000827924    0.000093220
     13        4           0.000139872    0.000077204    0.000059867
 -------------------------------------------------------------------
 Cartesian Forces:  Max     0.003893969 RMS     0.001259058

 GradGradGradGradGradGradGradGradGradGradGradGradGradGradGradGradGradGrad
 Berny optimization.
 Internal  Forces:  Max     0.003468224 RMS     0.000824632
 Search for a local minimum.
 Step number   1 out of a maximum of   70
 All quantities printed in internal units (Hartrees-Bohrs-Radians)
 Mixed Optimization -- En-DIIS/RFO-DIIS
 Second derivative matrix not updated -- first step.
     Eigenvalues ---    0.01907   0.02092   0.02272   0.02310   0.02464
     Eigenvalues ---    0.02752   0.03363   0.03707   0.07762   0.07907
     Eigenvalues ---    0.08223   0.08233   0.09763   0.11114   0.15999
     Eigenvalues ---    0.16000   0.16000   0.16000   0.16000   0.22475
     Eigenvalues ---    0.23494   0.24999   0.27335   0.30722   0.31065
     Eigenvalues ---    0.32249   0.35647   0.35810   0.35853   0.38629
     Eigenvalues ---    0.43602   0.50954   0.551441000.000001000.00000
     Eigenvalues --- 1000.000001000.000001000.000001000.000001000.00000
     Eigenvalues --- 1000.000001000.000001000.000001000.000001000.00000
     Eigenvalues --- 1000.000001000.000001000.000001000.000001000.00000
     Eigenvalues --- 1000.000001000.000001000.000001000.000001000.00000
     Eigenvalues --- 1000.000001000.000001000.000001000.000001000.00000
 RFO step:  Lambda=-2.17325257D-04 EMin= 1.90666746D-02
 Linear search not attempted -- first point.
 Iteration  1 RMS(Cart)=  0.00713445 RMS(Int)=  0.00001617
 Iteration  2 RMS(Cart)=  0.00001456 RMS(Int)=  0.00000470
 Iteration  3 RMS(Cart)=  0.00000000 RMS(Int)=  0.00000470
 Variable       Old X    -DE/DX   Delta X   Delta X   Delta X     New X
                                 (Linear)    (Quad)   (Total)
    R1        2.53937   0.00286   0.00000   0.00521   0.00521   2.54457
    R2        2.04312   0.00044   0.00000   0.00123   0.00123   2.04434
    R3        2.65447  -0.00065   0.00000  -0.00144  -0.00144   2.65304
    R4        2.04380   0.00018   0.00000   0.00051   0.00051   2.04431
    R5        3.25863  -0.00037   0.00000  -0.00095  -0.00095   3.25767
    R6        2.04638   0.00045   0.00000   0.00126   0.00126   2.04763
    R7        2.55524   0.00029   0.00000   0.00039   0.00039   2.55563
    R8        2.93615   0.00347   0.00000   0.01268   0.01268   2.94882
    R9        1.47582  -0.00174   0.00000  -0.00593  -0.00594   1.46988
   R10        3.10804   0.00153   0.00000   0.01919   0.01919   3.12723
   R11        3.13300   0.00148   0.00000   0.01924   0.01924   3.15224
   R12        1.47552  -0.00171   0.00000  -0.00593  -0.00593   1.46958
   R13        3.10522   0.00154   0.00000   0.01933   0.01933   3.12455
   R14        3.13104   0.00142   0.00000   0.01855   0.01855   3.14959
   R15        3.14617   0.00148   0.00000   0.00352   0.00352   3.14969
    A1        2.19850   0.00007   0.00000   0.00015   0.00015   2.19865
    A2        1.97598  -0.00014   0.00000  -0.00024  -0.00024   1.97573
    A3        2.10867   0.00006   0.00000   0.00010   0.00010   2.10877
    A4        2.23172   0.00019   0.00000   0.00069   0.00069   2.23241
    A5        1.93744  -0.00023   0.00000  -0.00044  -0.00044   1.93700
    A6        2.11402   0.00004   0.00000  -0.00025  -0.00025   2.11377
    A7        1.93503   0.00031   0.00000   0.00099   0.00099   1.93603
    A8        2.16363  -0.00005   0.00000  -0.00009  -0.00009   2.16353
    A9        2.18451  -0.00025   0.00000  -0.00090  -0.00090   2.18360
   A10        2.16022  -0.00007   0.00000  -0.00021  -0.00021   2.16001
   A11        2.13359   0.00010   0.00000   0.00083   0.00083   2.13442
   A12        1.98935  -0.00003   0.00000  -0.00063  -0.00063   1.98873
   A13        1.58697   0.00008   0.00000   0.00032   0.00032   1.58729
   A14        2.05396   0.00028   0.00000   0.00071   0.00070   2.05466
   A15        2.34728  -0.00023   0.00000  -0.00047  -0.00047   2.34681
   A16        2.01518   0.00032   0.00000   0.00062   0.00062   2.01580
   A17        2.35615  -0.00009   0.00000   0.00096   0.00095   2.35710
   A18        2.21378  -0.00060   0.00000  -0.00134  -0.00133   2.21245
   A19        1.81149   0.00005   0.00000   0.00076   0.00075   1.81224
   A20        1.85356   0.00015   0.00000   0.00194   0.00192   1.85548
   A21        1.57948   0.00032   0.00000  -0.00051  -0.00051   1.57896
    D1       -0.00665   0.00001   0.00000   0.00049   0.00049  -0.00616
    D2        3.13315   0.00000   0.00000  -0.00013  -0.00013   3.13301
    D3       -3.13857  -0.00002   0.00000  -0.00093  -0.00093  -3.13950
    D4        0.00123  -0.00003   0.00000  -0.00155  -0.00155  -0.00032
    D5       -0.00007   0.00001   0.00000   0.00048   0.00047   0.00040
    D6       -3.13502   0.00002   0.00000   0.00106   0.00106  -3.13397
    D7       -3.13255  -0.00002   0.00000  -0.00086  -0.00086  -3.13341
    D8        0.01569   0.00000   0.00000  -0.00028  -0.00028   0.01541
    D9       -0.00159   0.00004   0.00000   0.00172   0.00172   0.00013
   D10        3.13835   0.00002   0.00000   0.00115   0.00115   3.13949
   D11       -3.13580   0.00003   0.00000   0.00136   0.00136  -3.13444
   D12       -0.00118   0.00002   0.00000   0.00088   0.00088  -0.00030
   D13       -0.00095   0.00002   0.00000   0.00078   0.00078  -0.00017
   D14        3.13367   0.00000   0.00000   0.00029   0.00029   3.13397
   D15       -2.67816  -0.00039   0.00000  -0.00322  -0.00321  -2.68137
   D16        3.13294   0.00041   0.00000   0.00353   0.00352   3.13646
   D17        0.44027  -0.00041   0.00000  -0.00367  -0.00368   0.43659
   D18        0.02463   0.00046   0.00000   0.00525   0.00526   0.02988
   D19        0.47103  -0.00037   0.00000  -0.00257  -0.00256   0.46847
   D20       -0.00106   0.00043   0.00000   0.00418   0.00418   0.00312
   D21       -2.69373  -0.00039   0.00000  -0.00302  -0.00302  -2.69675
   D22       -3.10937   0.00048   0.00000   0.00591   0.00591  -3.10346
   D23        3.13633  -0.00004   0.00000  -0.00196  -0.00196   3.13437
   D24        0.00159  -0.00003   0.00000  -0.00149  -0.00149   0.00011
         Item               Value     Threshold  Converged?
 Maximum Force            0.003468     0.000450     NO 
 RMS     Force            0.000825     0.000300     NO 
 Maximum Displacement     0.021194     0.001800     NO 
 RMS     Displacement     0.007136     0.001200     NO 
 Predicted change in Energy=-1.088529D-04
 GradGradGradGradGradGradGradGradGradGradGradGradGradGradGradGradGradGrad

                          Input orientation:                          
 ---------------------------------------------------------------------
 Center     Atomic      Atomic             Coordinates (Angstroms)
 Number     Number       Type             X           Y           Z
 ---------------------------------------------------------------------
      1          6           0       -0.276886    1.237030    0.048668
      2          6           0        1.065963    1.138003    0.039251
      3          1           0       -0.298068   -2.065879   -0.076697
      4          1           0       -0.846026    2.156033    0.091655
      5          1           0        1.791745    1.939730    0.066923
      6          7           0       -0.923629   -0.008339    0.006376
      7          1           0       -3.091085   -1.597600    0.600118
      8          1           0       -3.499336   -1.500316   -0.054776
      9          1           0       -3.333365    1.097098   -0.594742
     10          1           0       -3.779668    0.850219   -0.007687
     11          6           0       -0.024988   -1.018181   -0.033591
     12         16           0        1.562860   -0.511576   -0.022129
     13          4           0       -2.473949   -0.185609   -0.003186
 ---------------------------------------------------------------------
                    Distance matrix (angstroms):
                    1          2          3          4          5
     1  C    0.000000
     2  C    1.346529   0.000000
     3  H    3.305356   3.484091   0.000000
     4  H    1.081820   2.166757   4.260651   0.000000
     5  H    2.184801   1.081800   4.520271   2.646741   0.000000
     6  N    1.403927   2.296445   2.152138   2.167442   3.342439
     7  H    4.032238   5.007909   2.911754   4.403247   6.053019
     8  H    4.229415   5.273664   3.250917   4.519998   6.312232
     9  H    3.126599   4.444965   4.414275   2.789147   5.235894
    10  H    3.524525   4.854396   4.542018   3.212674   5.677433
    11  C    2.270726   2.417562   1.083561   3.281070   3.472730
    12  S    2.539154   1.723887   2.425260   3.596083   2.463578
    13  Be   2.617952   3.779514   2.876678   2.853492   4.766354
                    6          7          8          9         10
     6  N    0.000000
     7  H    2.752480   0.000000
     8  H    2.977247   0.777830   0.000000
     9  H    2.718485   2.957666   2.658132   0.000000
    10  H    2.982327   2.614457   2.367660   0.777669   0.000000
    11  C    1.352381   3.184065   3.507706   3.966693   4.193949
    12  S    2.537063   4.819320   5.157955   5.185435   5.513374
    13  Be   1.560451   1.654857   1.668093   1.653443   1.666692
                   11         12         13
    11  C    0.000000
    12  S    1.666745   0.000000
    13  Be   2.586795   4.049992   0.000000
 Stoichiometry    C3H7BeNS(2+)
 Framework group  C1[X(C3H7BeNS)]
 Deg. of freedom    33
 Full point group                 C1      NOp   1
 Largest Abelian subgroup         C1      NOp   1
 Largest concise Abelian subgroup C1      NOp   1
                         Standard orientation:                         
 ---------------------------------------------------------------------
 Center     Atomic      Atomic             Coordinates (Angstroms)
 Number     Number       Type             X           Y           Z
 ---------------------------------------------------------------------
      1          6           0       -0.279306    1.236539    0.049037
      2          6           0        1.063469    1.136539    0.039281
      3          1           0       -0.302925   -2.066265   -0.078628
      4          1           0       -0.847766    2.155927    0.092780
      5          1           0        1.789842    1.937716    0.067367
      6          7           0       -0.926967   -0.008328    0.006006
      7          1           0       -3.095464   -1.596419    0.599075
      8          1           0       -3.503775   -1.498380   -0.055669
      9          1           0       -3.336016    1.099288   -0.593856
     10          1           0       -3.782380    0.852325   -0.006883
     11          6           0       -0.029071   -1.018797   -0.034846
     12         16           0        1.559148   -0.513360   -0.023349
     13          4           0       -2.477417   -0.184459   -0.003368
 ---------------------------------------------------------------------
 Rotational constants (GHZ):      6.7187428      2.3932155      1.7746224
 Standard basis: 6-311+G(d,p) (5D, 7F)
 There are   182 symmetry adapted basis functions of A   symmetry.
 Integral buffers will be    262144 words long.
 Raffenetti 2 integral format.
 Two-electron integral symmetry is turned on.
   182 basis functions,   286 primitive gaussians,   188 cartesian basis functions
    25 alpha electrons       25 beta electrons
       nuclear repulsion energy       268.3930758865 Hartrees.
 NAtoms=   13 NActive=   13 NUniq=   13 SFac= 7.50D-01 NAtFMM=   80 NAOKFM=F Big=F
 Nuclear repulsion after empirical dispersion term =      268.3882300059 Hartrees.
 One-electron integrals computed using PRISM.
 NBasis=   182 RedAO= T  NBF=   182
 NBsUse=   182 1.00D-06 NBFU=   182
 Initial guess read from the read-write file.
 B after Tr=     0.000000    0.000000    0.000000
         Rot=    1.000000    0.000000    0.000000    0.000000 Ang=   0.00 deg.
 Initial guess orbital symmetries:
       Occupied  (A) (A) (A) (A) (A) (A) (A) (A) (A) (A) (A) (A)
                 (A) (A) (A) (A) (A) (A) (A) (A) (A) (A) (A) (A)
                 (A)
       Virtual   (A) (A) (A) (A) (A) (A) (A) (A) (A) (A) (A) (A)
                 (A) (A) (A) (A) (A) (A) (A) (A) (A) (A) (A) (A)
                 (A) (A) (A) (A) (A) (A) (A) (A) (A) (A) (A) (A)
                 (A) (A) (A) (A) (A) (A) (A) (A) (A) (A) (A) (A)
                 (A) (A) (A) (A) (A) (A) (A) (A) (A) (A) (A) (A)
                 (A) (A) (A) (A) (A) (A) (A) (A) (A) (A) (A) (A)
                 (A) (A) (A) (A) (A) (A) (A) (A) (A) (A) (A) (A)
                 (A) (A) (A) (A) (A) (A) (A) (A) (A) (A) (A) (A)
                 (A) (A) (A) (A) (A) (A) (A) (A) (A) (A) (A) (A)
                 (A) (A) (A) (A) (A) (A) (A) (A) (A) (A) (A) (A)
                 (A) (A) (A) (A) (A) (A) (A) (A) (A) (A) (A) (A)
                 (A) (A) (A) (A) (A) (A) (A) (A) (A) (A) (A) (A)
                 (A) (A) (A) (A) (A) (A) (A) (A) (A) (A) (A) (A)
                 (A)
 Harris functional with IExCor= 4639 diagonalized for initial guess.
 ExpMin= 2.07D-02 ExpMax= 9.34D+04 ExpMxC= 3.17D+03 IAcc=3 IRadAn=         0 AccDes= 0.00D+00
 HarFok:  IExCor= 4639 AccDes= 0.00D+00 IRadAn=         0 IDoV= 1
 ScaDFX=  1.000000  1.000000  1.000000  1.000000
 FoFCou: FMM=F IPFlag=           0 FMFlag=      100000 FMFlg1=           0
         NFxFlg=           0 DoJE=T BraDBF=F KetDBF=T FulRan=T
         Omega=  0.000000  0.000000  1.000000  0.000000  0.000000 ICntrl=     500 IOpCl=  0
         NMat0=    1 NMatS0=    1 NMatT0=    0 NMatD0=    1 NMtDS0=    0 NMtDT0=    0
         I1Cent=           4 NGrid=           0.
 Petite list used in FoFCou.
 Requested convergence on RMS density matrix=1.00D-08 within 128 cycles.
 Requested convergence on MAX density matrix=1.00D-06.
 Requested convergence on             energy=1.00D-06.
 No special actions if energy rises.
 FoFJK:  IHMeth= 1 ICntrl=     0 DoSepK=T KAlg= 1 I1Cent= 0 FoldK=F
 FoFJK:  IHMeth= 1 ICntrl=     0 DoSepK=T KAlg= 1 I1Cent= 0 FoldK=F
 FoFJK:  IHMeth= 1 ICntrl=     0 DoSepK=T KAlg= 1 I1Cent= 0 FoldK=F
 FoFJK:  IHMeth= 1 ICntrl=     0 DoSepK=T KAlg= 1 I1Cent= 0 FoldK=F
 FoFJK:  IHMeth= 1 ICntrl=     0 DoSepK=T KAlg= 1 I1Cent= 0 FoldK=F
 FoFJK:  IHMeth= 1 ICntrl=     0 DoSepK=T KAlg= 1 I1Cent= 0 FoldK=F
 FoFJK:  IHMeth= 1 ICntrl=     0 DoSepK=T KAlg= 1 I1Cent= 0 FoldK=F
 FoFJK:  IHMeth= 1 ICntrl=     0 DoSepK=T KAlg= 1 I1Cent= 0 FoldK=F
 FoFJK:  IHMeth= 1 ICntrl=     0 DoSepK=T KAlg= 1 I1Cent= 0 FoldK=F
 FoFJK:  IHMeth= 1 ICntrl=     0 DoSepK=T KAlg= 1 I1Cent= 0 FoldK=F
 SCF Done:  E(RwB97XD) =  -585.474508468     A.U. after   10 cycles
             Convg  =    0.7236D-08             -V/T =  2.0022
 Calling FoFJK, ICntrl=      2127 FMM=F ISym2X=0 I1Cent= 0 IOpClX= 0 NMat=1 NMatS=1 NMatT=0.
 FoFJK:  IHMeth= 1 ICntrl=  2127 DoSepK=T KAlg= 1 I1Cent= 0 FoldK=F
 ***** Axes restored to original set *****
 -------------------------------------------------------------------
 Center     Atomic                   Forces (Hartrees/Bohr)
 Number     Number              X              Y              Z
 -------------------------------------------------------------------
      1        6          -0.000787918   -0.000369762   -0.000024280
      2        6           0.000334349   -0.000415603    0.000046910
      3        1           0.000020579    0.000048236    0.000020033
      4        1           0.000085450    0.000007365   -0.000006909
      5        1          -0.000034626    0.000005424    0.000023419
      6        7           0.001612859    0.000512159   -0.000009734
      7        1          -0.000446896   -0.000785148    0.000284862
      8        1          -0.000530915   -0.000748968    0.000091801
      9        1          -0.000512961    0.000730306   -0.000267862
     10        1          -0.000747914    0.000495164   -0.000160587
     11        6          -0.000778446   -0.000276637    0.000005193
     12       16           0.000136987    0.000535570   -0.000055127
     13        4           0.001649454    0.000261892    0.000052282
 -------------------------------------------------------------------
 Cartesian Forces:  Max     0.001649454 RMS     0.000534723

 GradGradGradGradGradGradGradGradGradGradGradGradGradGradGradGradGradGrad
 Berny optimization.
 Using GEDIIS/GDIIS optimizer.
 Internal  Forces:  Max     0.000949984 RMS     0.000288624
 Search for a local minimum.
 Step number   2 out of a maximum of   70
 All quantities printed in internal units (Hartrees-Bohrs-Radians)
 Mixed Optimization -- En-DIIS/RFO-DIIS
 Swaping is turned off.
 Update second derivatives using D2CorX and points    1    2
 DE= -1.51D-04 DEPred=-1.09D-04 R= 1.39D+00
 SS=  1.41D+00  RLast= 4.35D-02 DXNew= 5.0454D-01 1.3065D-01
 Trust test= 1.39D+00 RLast= 4.35D-02 DXMaxT set to 3.00D-01
     Eigenvalues ---    0.01909   0.02100   0.02272   0.02310   0.02464
     Eigenvalues ---    0.02751   0.03334   0.03684   0.04293   0.07794
     Eigenvalues ---    0.08180   0.08225   0.09613   0.11018   0.15985
     Eigenvalues ---    0.16000   0.16000   0.16000   0.16025   0.22479
     Eigenvalues ---    0.23305   0.24985   0.27794   0.31034   0.32101
     Eigenvalues ---    0.33079   0.35720   0.35816   0.36110   0.38507
     Eigenvalues ---    0.43723   0.50846   0.576201000.000001000.00000
     Eigenvalues --- 1000.000001000.000001000.000001000.000001000.00000
     Eigenvalues --- 1000.000001000.000001000.000001000.000001000.00000
     Eigenvalues --- 1000.000001000.000001000.000001000.000001000.00000
     Eigenvalues --- 1000.000001000.000001000.000001000.000001000.00000
     Eigenvalues --- 1000.000001000.000001000.000001000.000001000.00000
 En-DIIS/RFO-DIIS IScMMF=        0 using points:     2    1
 RFO step:  Lambda=-2.10870990D-05.
 DIIS coeffs:      1.65064     -0.65064
 Iteration  1 RMS(Cart)=  0.00646438 RMS(Int)=  0.00001953
 Iteration  2 RMS(Cart)=  0.00001843 RMS(Int)=  0.00000782
 Iteration  3 RMS(Cart)=  0.00000000 RMS(Int)=  0.00000782
 Variable       Old X    -DE/DX   Delta X   Delta X   Delta X     New X
                                  (DIIS)     (GDIIS)  (Total)
    R1        2.54457   0.00019   0.00339  -0.00183   0.00155   2.54612
    R2        2.04434  -0.00004   0.00080  -0.00074   0.00006   2.04440
    R3        2.65304  -0.00062  -0.00093  -0.00169  -0.00262   2.65041
    R4        2.04431  -0.00002   0.00033  -0.00031   0.00002   2.04432
    R5        3.25767  -0.00035  -0.00062  -0.00122  -0.00184   3.25583
    R6        2.04763  -0.00005   0.00082  -0.00083  -0.00001   2.04762
    R7        2.55563  -0.00032   0.00025  -0.00119  -0.00093   2.55470
    R8        2.94882   0.00059   0.00825  -0.00227   0.00598   2.95480
    R9        1.46988  -0.00003  -0.00386   0.00245  -0.00143   1.46845
   R10        3.12723   0.00095   0.01249   0.01019   0.02268   3.14990
   R11        3.15224   0.00092   0.01252   0.01015   0.02267   3.17491
   R12        1.46958   0.00001  -0.00386   0.00243  -0.00143   1.46815
   R13        3.12455   0.00093   0.01258   0.00977   0.02234   3.14689
   R14        3.14959   0.00089   0.01207   0.01001   0.02208   3.17167
   R15        3.14969   0.00029   0.00229  -0.00038   0.00191   3.15160
    A1        2.19865  -0.00002   0.00010  -0.00040  -0.00030   2.19835
    A2        1.97573  -0.00011  -0.00016  -0.00082  -0.00098   1.97476
    A3        2.10877   0.00013   0.00007   0.00120   0.00126   2.11004
    A4        2.23241  -0.00004   0.00045  -0.00078  -0.00033   2.23208
    A5        1.93700   0.00001  -0.00029   0.00042   0.00013   1.93714
    A6        2.11377   0.00003  -0.00016   0.00036   0.00020   2.11397
    A7        1.93603   0.00036   0.00065   0.00174   0.00239   1.93842
    A8        2.16353  -0.00009  -0.00006  -0.00048  -0.00054   2.16299
    A9        2.18360  -0.00027  -0.00059  -0.00127  -0.00185   2.18175
   A10        2.16001   0.00014  -0.00013   0.00113   0.00100   2.16101
   A11        2.13442   0.00012   0.00054   0.00045   0.00099   2.13541
   A12        1.98873  -0.00026  -0.00041  -0.00160  -0.00201   1.98672
   A13        1.58729  -0.00001   0.00021   0.00025   0.00045   1.58774
   A14        2.05466   0.00004   0.00045   0.00028   0.00071   2.05536
   A15        2.34681  -0.00007  -0.00031  -0.00029  -0.00060   2.34621
   A16        2.01580   0.00007   0.00041  -0.00005   0.00036   2.01616
   A17        2.35710   0.00012   0.00062   0.00142   0.00203   2.35913
   A18        2.21245  -0.00011  -0.00086  -0.00024  -0.00109   2.21136
   A19        1.81224  -0.00009   0.00049  -0.00092  -0.00043   1.81181
   A20        1.85548   0.00006   0.00125   0.00065   0.00187   1.85735
   A21        1.57896  -0.00004  -0.00033  -0.00116  -0.00149   1.57747
    D1       -0.00616  -0.00001   0.00032  -0.00070  -0.00039  -0.00655
    D2        3.13301   0.00002  -0.00009   0.00137   0.00128   3.13430
    D3       -3.13950   0.00002  -0.00060   0.00206   0.00146  -3.13804
    D4       -0.00032   0.00004  -0.00101   0.00413   0.00313   0.00280
    D5        0.00040  -0.00001   0.00031  -0.00115  -0.00084  -0.00044
    D6       -3.13397  -0.00001   0.00069  -0.00152  -0.00083  -3.13480
    D7       -3.13341   0.00001  -0.00056   0.00146   0.00090  -3.13251
    D8        0.01541   0.00001  -0.00018   0.00109   0.00091   0.01632
    D9        0.00013  -0.00005   0.00112  -0.00466  -0.00355  -0.00342
   D10        3.13949  -0.00003   0.00075  -0.00275  -0.00201   3.13748
   D11       -3.13444   0.00000   0.00089  -0.00044   0.00045  -3.13399
   D12       -0.00030  -0.00003   0.00057  -0.00252  -0.00195  -0.00225
   D13       -0.00017   0.00000   0.00050  -0.00006   0.00045   0.00027
   D14        3.13397  -0.00003   0.00019  -0.00214  -0.00195   3.13202
   D15       -2.68137  -0.00004  -0.00209   0.00077  -0.00131  -2.68268
   D16        3.13646   0.00010   0.00229   0.00143   0.00371   3.14018
   D17        0.43659  -0.00010  -0.00239   0.00027  -0.00213   0.43447
   D18        0.02988   0.00018   0.00342   0.00325   0.00668   0.03656
   D19        0.46847  -0.00004  -0.00166   0.00033  -0.00131   0.46715
   D20        0.00312   0.00010   0.00272   0.00100   0.00370   0.00682
   D21       -2.69675  -0.00010  -0.00196  -0.00016  -0.00213  -2.69889
   D22       -3.10346   0.00018   0.00385   0.00282   0.00667  -3.09679
   D23        3.13437   0.00001  -0.00128   0.00207   0.00079   3.13516
   D24        0.00011   0.00004  -0.00097   0.00412   0.00315   0.00325
         Item               Value     Threshold  Converged?
 Maximum Force            0.000950     0.000450     NO 
 RMS     Force            0.000289     0.000300     YES
 Maximum Displacement     0.019648     0.001800     NO 
 RMS     Displacement     0.006468     0.001200     NO 
 Predicted change in Energy=-4.866780D-05
 GradGradGradGradGradGradGradGradGradGradGradGradGradGradGradGradGradGrad

                          Input orientation:                          
 ---------------------------------------------------------------------
 Center     Atomic      Atomic             Coordinates (Angstroms)
 Number     Number       Type             X           Y           Z
 ---------------------------------------------------------------------
      1          6           0       -0.274173    1.237526    0.048532
      2          6           0        1.069477    1.138101    0.039913
      3          1           0       -0.296449   -2.065557   -0.076834
      4          1           0       -0.842844    2.156817    0.092351
      5          1           0        1.795188    1.939859    0.068837
      6          7           0       -0.919344   -0.007104    0.006525
      7          1           0       -3.094963   -1.607776    0.603179
      8          1           0       -3.504471   -1.510237   -0.049990
      9          1           0       -3.339378    1.107495   -0.595549
     10          1           0       -3.789935    0.855054   -0.015147
     11          6           0       -0.022691   -1.018050   -0.033514
     12         16           0        1.565920   -0.510446   -0.025338
     13          4           0       -2.472768   -0.185070   -0.002784
 ---------------------------------------------------------------------
                    Distance matrix (angstroms):
                    1          2          3          4          5
     1  C    0.000000
     2  C    1.347351   0.000000
     3  H    3.305536   3.484654   0.000000
     4  H    1.081852   2.167372   4.260941   0.000000
     5  H    2.185392   1.081808   4.521009   2.647042   0.000000
     6  N    1.402539   2.295216   2.152249   2.166974   3.341142
     7  H    4.044779   5.019928   2.916104   4.416464   6.065048
     8  H    4.242020   5.286092   3.255841   4.533410   6.324845
     9  H    3.134842   4.454520   4.426821   2.794095   5.243854
    10  H    3.537079   4.867960   4.553924   3.223583   5.690119
    11  C    2.271034   2.418100   1.083555   3.281505   3.473382
    12  S    2.539056   1.722911   2.426817   3.595871   2.462809
    13  Be   2.619205   3.781548   2.877165   2.854845   4.768218
                    6          7          8          9         10
     6  N    0.000000
     7  H    2.766128   0.000000
     8  H    2.990900   0.777071   0.000000
     9  H    2.731555   2.978151   2.679069   0.000000
    10  H    2.997346   2.632650   2.382710   0.776913   0.000000
    11  C    1.351888   3.192493   3.516434   3.979226   4.207254
    12  S    2.535922   4.829389   5.168080   5.196616   5.527194
    13  Be   1.563613   1.666856   1.680091   1.665265   1.678374
                   11         12         13
    11  C    0.000000
    12  S    1.667757   0.000000
    13  Be   2.587987   4.051836   0.000000
 Stoichiometry    C3H7BeNS(2+)
 Framework group  C1[X(C3H7BeNS)]
 Deg. of freedom    33
 Full point group                 C1      NOp   1
 Largest Abelian subgroup         C1      NOp   1
 Largest concise Abelian subgroup C1      NOp   1
                         Standard orientation:                         
 ---------------------------------------------------------------------
 Center     Atomic      Atomic             Coordinates (Angstroms)
 Number     Number       Type             X           Y           Z
 ---------------------------------------------------------------------
      1          6           0       -0.278279    1.236605    0.049487
      2          6           0        1.065251    1.135547    0.041282
      3          1           0       -0.304540   -2.066369   -0.077962
      4          1           0       -0.845843    2.156562    0.093682
      5          1           0        1.791929    1.936400    0.070967
      6          7           0       -0.924953   -0.007210    0.006469
      7          1           0       -3.102736   -1.605600    0.601346
      8          1           0       -3.511891   -1.507151   -0.051907
      9          1           0       -3.343412    1.110719   -0.595763
     10          1           0       -3.794482    0.858464   -0.015680
     11          6           0       -0.029520   -1.019224   -0.033886
     12         16           0        1.559706   -0.513564   -0.024828
     13          4           0       -2.478590   -0.183274   -0.003503
 ---------------------------------------------------------------------
 Rotational constants (GHZ):      6.7109925      2.3892795      1.7720257
 Standard basis: 6-311+G(d,p) (5D, 7F)
 There are   182 symmetry adapted basis functions of A   symmetry.
 Integral buffers will be    262144 words long.
 Raffenetti 2 integral format.
 Two-electron integral symmetry is turned on.
   182 basis functions,   286 primitive gaussians,   188 cartesian basis functions
    25 alpha electrons       25 beta electrons
       nuclear repulsion energy       268.2762176701 Hartrees.
 NAtoms=   13 NActive=   13 NUniq=   13 SFac= 7.50D-01 NAtFMM=   80 NAOKFM=F Big=F
 Nuclear repulsion after empirical dispersion term =      268.2713962419 Hartrees.
 One-electron integrals computed using PRISM.
 NBasis=   182 RedAO= T  NBF=   182
 NBsUse=   182 1.00D-06 NBFU=   182
 Initial guess read from the read-write file.
 B after Tr=     0.000000    0.000000    0.000000
         Rot=    1.000000    0.000000    0.000000    0.000000 Ang=   0.00 deg.
 Initial guess orbital symmetries:
       Occupied  (A) (A) (A) (A) (A) (A) (A) (A) (A) (A) (A) (A)
                 (A) (A) (A) (A) (A) (A) (A) (A) (A) (A) (A) (A)
                 (A)
       Virtual   (A) (A) (A) (A) (A) (A) (A) (A) (A) (A) (A) (A)
                 (A) (A) (A) (A) (A) (A) (A) (A) (A) (A) (A) (A)
                 (A) (A) (A) (A) (A) (A) (A) (A) (A) (A) (A) (A)
                 (A) (A) (A) (A) (A) (A) (A) (A) (A) (A) (A) (A)
                 (A) (A) (A) (A) (A) (A) (A) (A) (A) (A) (A) (A)
                 (A) (A) (A) (A) (A) (A) (A) (A) (A) (A) (A) (A)
                 (A) (A) (A) (A) (A) (A) (A) (A) (A) (A) (A) (A)
                 (A) (A) (A) (A) (A) (A) (A) (A) (A) (A) (A) (A)
                 (A) (A) (A) (A) (A) (A) (A) (A) (A) (A) (A) (A)
                 (A) (A) (A) (A) (A) (A) (A) (A) (A) (A) (A) (A)
                 (A) (A) (A) (A) (A) (A) (A) (A) (A) (A) (A) (A)
                 (A) (A) (A) (A) (A) (A) (A) (A) (A) (A) (A) (A)
                 (A) (A) (A) (A) (A) (A) (A) (A) (A) (A) (A) (A)
                 (A)
 Requested convergence on RMS density matrix=1.00D-08 within 128 cycles.
 Requested convergence on MAX density matrix=1.00D-06.
 Requested convergence on             energy=1.00D-06.
 No special actions if energy rises.
 FoFJK:  IHMeth= 1 ICntrl=     0 DoSepK=T KAlg= 1 I1Cent= 0 FoldK=F
 FoFJK:  IHMeth= 1 ICntrl=     0 DoSepK=T KAlg= 1 I1Cent= 0 FoldK=F
 FoFJK:  IHMeth= 1 ICntrl=     0 DoSepK=T KAlg= 1 I1Cent= 0 FoldK=F
 FoFJK:  IHMeth= 1 ICntrl=     0 DoSepK=T KAlg= 1 I1Cent= 0 FoldK=F
 FoFJK:  IHMeth= 1 ICntrl=     0 DoSepK=T KAlg= 1 I1Cent= 0 FoldK=F
 FoFJK:  IHMeth= 1 ICntrl=     0 DoSepK=T KAlg= 1 I1Cent= 0 FoldK=F
 FoFJK:  IHMeth= 1 ICntrl=     0 DoSepK=T KAlg= 1 I1Cent= 0 FoldK=F
 FoFJK:  IHMeth= 1 ICntrl=     0 DoSepK=T KAlg= 1 I1Cent= 0 FoldK=F
 FoFJK:  IHMeth= 1 ICntrl=     0 DoSepK=T KAlg= 1 I1Cent= 0 FoldK=F
 FoFJK:  IHMeth= 1 ICntrl=     0 DoSepK=T KAlg= 1 I1Cent= 0 FoldK=F
 SCF Done:  E(RwB97XD) =  -585.474564908     A.U. after   10 cycles
             Convg  =    0.3619D-08             -V/T =  2.0022
 Calling FoFJK, ICntrl=      2127 FMM=F ISym2X=0 I1Cent= 0 IOpClX= 0 NMat=1 NMatS=1 NMatT=0.
 FoFJK:  IHMeth= 1 ICntrl=  2127 DoSepK=T KAlg= 1 I1Cent= 0 FoldK=F
 ***** Axes restored to original set *****
 -------------------------------------------------------------------
 Center     Atomic                   Forces (Hartrees/Bohr)
 Number     Number              X              Y              Z
 -------------------------------------------------------------------
      1        6           0.000330285   -0.000030022    0.000204271
      2        6          -0.000294419   -0.000083291   -0.000197817
      3        1           0.000039958    0.000079045    0.000019415
      4        1           0.000055440   -0.000053066   -0.000002361
      5        1          -0.000029698   -0.000002493   -0.000035374
      6        7          -0.000710094   -0.000118286    0.000022135
      7        1           0.000111102   -0.000247434    0.000604397
      8        1          -0.000484352   -0.000095020   -0.000469151
      9        1           0.000205012    0.000354550   -0.000532712
     10        1          -0.000627960   -0.000159944    0.000372189
     11        6           0.000026510    0.000085151   -0.000279146
     12       16          -0.000052935    0.000014217    0.000254368
     13        4           0.001431150    0.000256592    0.000039788
 -------------------------------------------------------------------
 Cartesian Forces:  Max     0.001431150 RMS     0.000358100

 GradGradGradGradGradGradGradGradGradGradGradGradGradGradGradGradGradGrad
 Berny optimization.
 Using GEDIIS/GDIIS optimizer.
 Internal  Forces:  Max     0.000644035 RMS     0.000164685
 Search for a local minimum.
 Step number   3 out of a maximum of   70
 All quantities printed in internal units (Hartrees-Bohrs-Radians)
 Mixed Optimization -- En-DIIS/RFO-DIIS
 Swaping is turned off.
 Update second derivatives using D2CorX and points    1    2    3
 DE= -5.64D-05 DEPred=-4.87D-05 R= 1.16D+00
 SS=  1.41D+00  RLast= 4.78D-02 DXNew= 5.0454D-01 1.4335D-01
 Trust test= 1.16D+00 RLast= 4.78D-02 DXMaxT set to 3.00D-01
     Eigenvalues ---    0.01910   0.02084   0.02273   0.02291   0.02463
     Eigenvalues ---    0.02751   0.03015   0.03587   0.03774   0.07784
     Eigenvalues ---    0.08178   0.08224   0.09484   0.10961   0.15973
     Eigenvalues ---    0.16000   0.16000   0.16017   0.16029   0.22481
     Eigenvalues ---    0.23671   0.24979   0.28400   0.31083   0.32178
     Eigenvalues ---    0.34981   0.35750   0.35817   0.36919   0.38840
     Eigenvalues ---    0.43668   0.51118   0.590041000.000001000.00000
     Eigenvalues --- 1000.000001000.000001000.000001000.000001000.00000
     Eigenvalues --- 1000.000001000.000001000.000001000.000001000.00000
     Eigenvalues --- 1000.000001000.000001000.000001000.000001000.00000
     Eigenvalues --- 1000.000001000.000001000.000001000.000001000.00000
     Eigenvalues --- 1000.000001000.000001000.000001000.000001000.00000
 En-DIIS/RFO-DIIS IScMMF=        0 using points:     3    2    1
 RFO step:  Lambda=-4.01189260D-06.
 DIIS coeffs:      1.18360     -0.17437     -0.00923
 Iteration  1 RMS(Cart)=  0.00265515 RMS(Int)=  0.00000651
 Iteration  2 RMS(Cart)=  0.00000558 RMS(Int)=  0.00000309
 Iteration  3 RMS(Cart)=  0.00000000 RMS(Int)=  0.00000309
 Variable       Old X    -DE/DX   Delta X   Delta X   Delta X     New X
                                  (DIIS)     (GDIIS)  (Total)
    R1        2.54612  -0.00031   0.00033  -0.00029   0.00004   2.54617
    R2        2.04440  -0.00007   0.00002  -0.00013  -0.00011   2.04430
    R3        2.65041  -0.00002  -0.00049  -0.00005  -0.00054   2.64987
    R4        2.04432  -0.00002   0.00001  -0.00003  -0.00002   2.04430
    R5        3.25583  -0.00009  -0.00035  -0.00031  -0.00066   3.25517
    R6        2.04762  -0.00009   0.00001  -0.00017  -0.00016   2.04746
    R7        2.55470  -0.00006  -0.00017  -0.00002  -0.00018   2.55451
    R8        2.95480  -0.00064   0.00121  -0.00194  -0.00073   2.95408
    R9        1.46845   0.00050  -0.00032   0.00148   0.00116   1.46962
   R10        3.14990   0.00028   0.00434   0.00409   0.00843   3.15833
   R11        3.17491   0.00026   0.00434   0.00386   0.00820   3.18311
   R12        1.46815   0.00054  -0.00032   0.00148   0.00117   1.46932
   R13        3.14689   0.00024   0.00428   0.00361   0.00789   3.15479
   R14        3.17167   0.00025   0.00422   0.00388   0.00810   3.17977
   R15        3.15160  -0.00009   0.00038  -0.00002   0.00037   3.15197
    A1        2.19835  -0.00004  -0.00005  -0.00017  -0.00022   2.19813
    A2        1.97476   0.00005  -0.00018   0.00020   0.00001   1.97477
    A3        2.11004  -0.00001   0.00023   0.00000   0.00023   2.11027
    A4        2.23208  -0.00006  -0.00005  -0.00021  -0.00026   2.23182
    A5        1.93714   0.00006   0.00002   0.00019   0.00020   1.93734
    A6        2.11397  -0.00001   0.00003   0.00002   0.00005   2.11402
    A7        1.93842  -0.00009   0.00045  -0.00048  -0.00004   1.93838
    A8        2.16299   0.00009  -0.00010   0.00044   0.00035   2.16334
    A9        2.18175   0.00000  -0.00035   0.00003  -0.00031   2.18144
   A10        2.16101   0.00000   0.00018  -0.00007   0.00011   2.16112
   A11        2.13541  -0.00004   0.00019  -0.00028  -0.00009   2.13532
   A12        1.98672   0.00005  -0.00037   0.00040   0.00001   1.98673
   A13        1.58774  -0.00007   0.00009  -0.00027  -0.00019   1.58755
   A14        2.05536  -0.00002   0.00014   0.00039   0.00052   2.05588
   A15        2.34621   0.00001  -0.00011  -0.00019  -0.00030   2.34591
   A16        2.01616  -0.00002   0.00007   0.00001   0.00008   2.01625
   A17        2.35913   0.00020   0.00038   0.00132   0.00170   2.36083
   A18        2.21136   0.00004  -0.00021  -0.00041  -0.00062   2.21074
   A19        1.81181  -0.00018  -0.00007  -0.00128  -0.00135   1.81046
   A20        1.85735  -0.00002   0.00036   0.00019   0.00054   1.85789
   A21        1.57747  -0.00021  -0.00028  -0.00116  -0.00144   1.57604
    D1       -0.00655   0.00002  -0.00007   0.00118   0.00111  -0.00544
    D2        3.13430  -0.00007   0.00023  -0.00329  -0.00305   3.13125
    D3       -3.13804  -0.00003   0.00026  -0.00210  -0.00184  -3.13988
    D4        0.00280  -0.00012   0.00056  -0.00656  -0.00600  -0.00319
    D5       -0.00044   0.00003  -0.00015   0.00141   0.00126   0.00082
    D6       -3.13480   0.00003  -0.00014   0.00196   0.00182  -3.13298
    D7       -3.13251  -0.00002   0.00016  -0.00167  -0.00152  -3.13403
    D8        0.01632  -0.00001   0.00016  -0.00112  -0.00096   0.01536
    D9       -0.00342   0.00014  -0.00064   0.00771   0.00708   0.00366
   D10        3.13748   0.00005  -0.00036   0.00360   0.00324   3.14072
   D11       -3.13399  -0.00001   0.00009  -0.00055  -0.00045  -3.13445
   D12       -0.00225   0.00008  -0.00035   0.00466   0.00431   0.00206
   D13        0.00027  -0.00002   0.00009  -0.00110  -0.00101  -0.00074
   D14        3.13202   0.00007  -0.00036   0.00410   0.00375   3.13576
   D15       -2.68268   0.00011  -0.00027   0.00083   0.00056  -2.68212
   D16        3.14018  -0.00005   0.00071   0.00042   0.00113   3.14131
   D17        0.43447   0.00004  -0.00042   0.00035  -0.00008   0.43439
   D18        0.03656   0.00004   0.00127   0.00204   0.00331   0.03987
   D19        0.46715   0.00012  -0.00026   0.00146   0.00120   0.46835
   D20        0.00682  -0.00004   0.00072   0.00105   0.00177   0.00859
   D21       -2.69889   0.00005  -0.00042   0.00098   0.00056  -2.69833
   D22       -3.09679   0.00005   0.00128   0.00267   0.00395  -3.09285
   D23        3.13516  -0.00003   0.00013  -0.00198  -0.00185   3.13331
   D24        0.00325  -0.00012   0.00056  -0.00710  -0.00653  -0.00328
         Item               Value     Threshold  Converged?
 Maximum Force            0.000644     0.000450     NO 
 RMS     Force            0.000165     0.000300     YES
 Maximum Displacement     0.008710     0.001800     NO 
 RMS     Displacement     0.002656     0.001200     NO 
 Predicted change in Energy=-7.736345D-06
 GradGradGradGradGradGradGradGradGradGradGradGradGradGradGradGradGradGrad

                          Input orientation:                          
 ---------------------------------------------------------------------
 Center     Atomic      Atomic             Coordinates (Angstroms)
 Number     Number       Type             X           Y           Z
 ---------------------------------------------------------------------
      1          6           0       -0.273239    1.237587    0.049780
      2          6           0        1.070396    1.137927    0.038584
      3          1           0       -0.296101   -2.064960   -0.078904
      4          1           0       -0.841438    2.157103    0.093618
      5          1           0        1.796083    1.939745    0.066024
      6          7           0       -0.918603   -0.006589    0.006801
      7          1           0       -3.096106   -1.611130    0.604615
      8          1           0       -3.505483   -1.513648   -0.049377
      9          1           0       -3.340759    1.111578   -0.595244
     10          1           0       -3.794005    0.855761   -0.017595
     11          6           0       -0.022244   -1.017593   -0.034985
     12         16           0        1.566697   -0.510522   -0.020728
     13          4           0       -2.471631   -0.184646   -0.002406
 ---------------------------------------------------------------------
                    Distance matrix (angstroms):
                    1          2          3          4          5
     1  C    0.000000
     2  C    1.347373   0.000000
     3  H    3.305131   3.484193   0.000000
     4  H    1.081796   2.167223   4.260630   0.000000
     5  H    2.185265   1.081798   4.520608   2.646606   0.000000
     6  N    1.402253   2.295004   2.152149   2.166807   3.340844
     7  H    4.048655   5.023688   2.917737   4.420886   6.068963
     8  H    4.245765   5.289353   3.256524   4.537841   6.328178
     9  H    3.137134   4.456536   4.430230   2.795400   5.245024
    10  H    3.542050   4.872901   4.557378   3.228547   5.694831
    11  C    2.270687   2.417755   1.083468   3.281206   3.473091
    12  S    2.538941   1.722561   2.426866   3.595610   2.462510
    13  Be   2.618854   3.781115   2.876519   2.854915   4.767715
                    6          7          8          9         10
     6  N    0.000000
     7  H    2.770100   0.000000
     8  H    2.994383   0.777687   0.000000
     9  H    2.734884   2.985407   2.686432   0.000000
    10  H    3.002029   2.638135   2.387122   0.777530   0.000000
    11  C    1.351790   3.195310   3.518413   3.982437   4.211406
    12  S    2.536025   4.831576   5.170502   5.200423   5.532076
    13  Be   1.563229   1.671317   1.684429   1.669441   1.682661
                   11         12         13
    11  C    0.000000
    12  S    1.667950   0.000000
    13  Be   2.587347   4.051497   0.000000
 Stoichiometry    C3H7BeNS(2+)
 Framework group  C1[X(C3H7BeNS)]
 Deg. of freedom    33
 Full point group                 C1      NOp   1
 Largest Abelian subgroup         C1      NOp   1
 Largest concise Abelian subgroup C1      NOp   1
                         Standard orientation:                         
 ---------------------------------------------------------------------
 Center     Atomic      Atomic             Coordinates (Angstroms)
 Number     Number       Type             X           Y           Z
 ---------------------------------------------------------------------
      1          6           0       -0.277902    1.236531    0.050693
      2          6           0        1.065605    1.135246    0.038821
      3          1           0       -0.304852   -2.065798   -0.082681
      4          1           0       -0.844959    2.156678    0.096066
      5          1           0        1.792283    1.936137    0.067114
      6          7           0       -0.924803   -0.006792    0.006201
      7          1           0       -3.104029   -1.609521    0.602598
      8          1           0       -3.513546   -1.510608   -0.051092
      9          1           0       -3.345829    1.115189   -0.593288
     10          1           0       -3.799158    0.859103   -0.015824
     11          6           0       -0.029697   -1.018831   -0.037380
     12         16           0        1.559868   -0.513722   -0.023034
     13          4           0       -2.478052   -0.182938   -0.002641
 ---------------------------------------------------------------------
 Rotational constants (GHZ):      6.7097954      2.3885604      1.7715282
 Standard basis: 6-311+G(d,p) (5D, 7F)
 There are   182 symmetry adapted basis functions of A   symmetry.
 Integral buffers will be    262144 words long.
 Raffenetti 2 integral format.
 Two-electron integral symmetry is turned on.
   182 basis functions,   286 primitive gaussians,   188 cartesian basis functions
    25 alpha electrons       25 beta electrons
       nuclear repulsion energy       268.2574097762 Hartrees.
 NAtoms=   13 NActive=   13 NUniq=   13 SFac= 7.50D-01 NAtFMM=   80 NAOKFM=F Big=F
 Nuclear repulsion after empirical dispersion term =      268.2525957997 Hartrees.
 One-electron integrals computed using PRISM.
 NBasis=   182 RedAO= T  NBF=   182
 NBsUse=   182 1.00D-06 NBFU=   182
 Initial guess read from the read-write file.
 B after Tr=     0.000000    0.000000    0.000000
         Rot=    1.000000    0.000000    0.000000    0.000000 Ang=   0.00 deg.
 Initial guess orbital symmetries:
       Occupied  (A) (A) (A) (A) (A) (A) (A) (A) (A) (A) (A) (A)
                 (A) (A) (A) (A) (A) (A) (A) (A) (A) (A) (A) (A)
                 (A)
       Virtual   (A) (A) (A) (A) (A) (A) (A) (A) (A) (A) (A) (A)
                 (A) (A) (A) (A) (A) (A) (A) (A) (A) (A) (A) (A)
                 (A) (A) (A) (A) (A) (A) (A) (A) (A) (A) (A) (A)
                 (A) (A) (A) (A) (A) (A) (A) (A) (A) (A) (A) (A)
                 (A) (A) (A) (A) (A) (A) (A) (A) (A) (A) (A) (A)
                 (A) (A) (A) (A) (A) (A) (A) (A) (A) (A) (A) (A)
                 (A) (A) (A) (A) (A) (A) (A) (A) (A) (A) (A) (A)
                 (A) (A) (A) (A) (A) (A) (A) (A) (A) (A) (A) (A)
                 (A) (A) (A) (A) (A) (A) (A) (A) (A) (A) (A) (A)
                 (A) (A) (A) (A) (A) (A) (A) (A) (A) (A) (A) (A)
                 (A) (A) (A) (A) (A) (A) (A) (A) (A) (A) (A) (A)
                 (A) (A) (A) (A) (A) (A) (A) (A) (A) (A) (A) (A)
                 (A) (A) (A) (A) (A) (A) (A) (A) (A) (A) (A) (A)
                 (A)
 Requested convergence on RMS density matrix=1.00D-08 within 128 cycles.
 Requested convergence on MAX density matrix=1.00D-06.
 Requested convergence on             energy=1.00D-06.
 No special actions if energy rises.
 FoFJK:  IHMeth= 1 ICntrl=     0 DoSepK=T KAlg= 1 I1Cent= 0 FoldK=F
 FoFJK:  IHMeth= 1 ICntrl=     0 DoSepK=T KAlg= 1 I1Cent= 0 FoldK=F
 FoFJK:  IHMeth= 1 ICntrl=     0 DoSepK=T KAlg= 1 I1Cent= 0 FoldK=F
 FoFJK:  IHMeth= 1 ICntrl=     0 DoSepK=T KAlg= 1 I1Cent= 0 FoldK=F
 FoFJK:  IHMeth= 1 ICntrl=     0 DoSepK=T KAlg= 1 I1Cent= 0 FoldK=F
 FoFJK:  IHMeth= 1 ICntrl=     0 DoSepK=T KAlg= 1 I1Cent= 0 FoldK=F
 FoFJK:  IHMeth= 1 ICntrl=     0 DoSepK=T KAlg= 1 I1Cent= 0 FoldK=F
 FoFJK:  IHMeth= 1 ICntrl=     0 DoSepK=T KAlg= 1 I1Cent= 0 FoldK=F
 FoFJK:  IHMeth= 1 ICntrl=     0 DoSepK=T KAlg= 1 I1Cent= 0 FoldK=F
 SCF Done:  E(RwB97XD) =  -585.474570410     A.U. after    9 cycles
             Convg  =    0.6165D-08             -V/T =  2.0022
 Calling FoFJK, ICntrl=      2127 FMM=F ISym2X=0 I1Cent= 0 IOpClX= 0 NMat=1 NMatS=1 NMatT=0.
 FoFJK:  IHMeth= 1 ICntrl=  2127 DoSepK=T KAlg= 1 I1Cent= 0 FoldK=F
 ***** Axes restored to original set *****
 -------------------------------------------------------------------
 Center     Atomic                   Forces (Hartrees/Bohr)
 Number     Number              X              Y              Z
 -------------------------------------------------------------------
      1        6           0.000411593    0.000147534   -0.000153916
      2        6          -0.000284019    0.000056431    0.000346414
      3        1           0.000016736    0.000023403    0.000027657
      4        1           0.000020039   -0.000026748   -0.000023625
      5        1          -0.000023090   -0.000000208    0.000050165
      6        7          -0.000628432   -0.000197612   -0.000145858
      7        1           0.000031744   -0.000003483    0.000275609
      8        1          -0.000194807    0.000055479   -0.000226739
      9        1           0.000147441    0.000069141   -0.000238155
     10        1          -0.000281470   -0.000206536    0.000172044
     11        6           0.000193426    0.000004101    0.000311908
     12       16          -0.000159586   -0.000104610   -0.000408955
     13        4           0.000750425    0.000183109    0.000013451
 -------------------------------------------------------------------
 Cartesian Forces:  Max     0.000750425 RMS     0.000238567

 GradGradGradGradGradGradGradGradGradGradGradGradGradGradGradGradGradGrad
 Berny optimization.
 Using GEDIIS/GDIIS optimizer.
 Internal  Forces:  Max     0.000462371 RMS     0.000119440
 Search for a local minimum.
 Step number   4 out of a maximum of   70
 All quantities printed in internal units (Hartrees-Bohrs-Radians)
 Mixed Optimization -- En-DIIS/RFO-DIIS
 Swaping is turned off.
 Update second derivatives using D2CorX and points    1    2    3    4
 DE= -5.50D-06 DEPred=-7.74D-06 R= 7.11D-01
 SS=  1.41D+00  RLast= 2.26D-02 DXNew= 5.0454D-01 6.7763D-02
 Trust test= 7.11D-01 RLast= 2.26D-02 DXMaxT set to 3.00D-01
     Eigenvalues ---    0.01760   0.01964   0.02232   0.02273   0.02461
     Eigenvalues ---    0.02750   0.03443   0.03686   0.04643   0.07789
     Eigenvalues ---    0.08178   0.08223   0.09495   0.10915   0.15949
     Eigenvalues ---    0.16000   0.16000   0.16018   0.16072   0.22492
     Eigenvalues ---    0.23667   0.24969   0.28438   0.31097   0.32242
     Eigenvalues ---    0.33282   0.35718   0.35817   0.36103   0.38859
     Eigenvalues ---    0.43918   0.51236   0.580211000.000001000.00000
     Eigenvalues --- 1000.000001000.000001000.000001000.000001000.00000
     Eigenvalues --- 1000.000001000.000001000.000001000.000001000.00000
     Eigenvalues --- 1000.000001000.000001000.000001000.000001000.00000
     Eigenvalues --- 1000.000001000.000001000.000001000.000001000.00000
     Eigenvalues --- 1000.000001000.000001000.000001000.000001000.00000
 En-DIIS/RFO-DIIS IScMMF=        0 using points:     4    3    2    1
 RFO step:  Lambda=-2.19663570D-06.
 DIIS coeffs:      0.71862      0.64782     -0.60873      0.24229
 Iteration  1 RMS(Cart)=  0.00157906 RMS(Int)=  0.00000351
 Iteration  2 RMS(Cart)=  0.00000266 RMS(Int)=  0.00000219
 Iteration  3 RMS(Cart)=  0.00000000 RMS(Int)=  0.00000219
 Variable       Old X    -DE/DX   Delta X   Delta X   Delta X     New X
                                  (DIIS)     (GDIIS)  (Total)
    R1        2.54617  -0.00030  -0.00070   0.00037  -0.00033   2.54583
    R2        2.04430  -0.00003  -0.00025   0.00017  -0.00008   2.04422
    R3        2.64987   0.00017  -0.00046   0.00066   0.00020   2.65008
    R4        2.04430  -0.00001  -0.00011   0.00009  -0.00002   2.04428
    R5        3.25517   0.00006  -0.00026   0.00021  -0.00004   3.25512
[...]
      2        6           0.000013220   -0.000025524    0.000001180
      3        1          -0.000002410   -0.000000195    0.000014159
      4        1           0.000005593    0.000001813   -0.000013481
      5        1          -0.000001403   -0.000001037   -0.000001212
      6        7           0.000003543   -0.000007136   -0.000014875
      7        1          -0.000004654    0.000006108    0.000007503
      8        1          -0.000017484    0.000007206   -0.000001554
      9        1          -0.000002684   -0.000005163   -0.000018184
     10        1           0.000002303    0.000000144   -0.000008181
     11        6          -0.000003370    0.000000813    0.000017094
     12       16           0.000001419    0.000007461    0.000013403
     13        4           0.000024304    0.000018236    0.000001170
 -------------------------------------------------------------------
 Cartesian Forces:  Max     0.000025524 RMS     0.000010466

 GradGradGradGradGradGradGradGradGradGradGradGradGradGradGradGradGradGrad
 Berny optimization.
 Internal  Forces:  Max     0.000015722 RMS     0.000005474
 Search for a local minimum.
 Step number   1 out of a maximum of    2
 All quantities printed in internal units (Hartrees-Bohrs-Radians)
 Second derivative matrix not updated -- analytic derivatives used.
     Eigenvalues ---    0.00067   0.00340   0.00477   0.00574   0.00894
     Eigenvalues ---    0.01259   0.01490   0.01584   0.01968   0.02664
     Eigenvalues ---    0.02775   0.02934   0.03723   0.04479   0.04565
     Eigenvalues ---    0.05221   0.07304   0.09865   0.11398   0.12020
     Eigenvalues ---    0.18483   0.21883   0.23133   0.26367   0.26446
     Eigenvalues ---    0.27251   0.32833   0.36738   0.37063   0.37239
     Eigenvalues ---    0.41755   0.44774   0.545701000.000001000.00000
     Eigenvalues --- 1000.000001000.000001000.000001000.000001000.00000
     Eigenvalues --- 1000.000001000.000001000.000001000.000001000.00000
     Eigenvalues --- 1000.000001000.000001000.000001000.000001000.00000
     Eigenvalues --- 1000.000001000.000001000.000001000.000001000.00000
     Eigenvalues --- 1000.000001000.000001000.000001000.000001000.00000
 Angle between quadratic step and forces=  60.84 degrees.
 Linear search not attempted -- first point.
 Iteration  1 RMS(Cart)=  0.00133563 RMS(Int)=  0.00000387
 Iteration  2 RMS(Cart)=  0.00000257 RMS(Int)=  0.00000154
 Iteration  3 RMS(Cart)=  0.00000000 RMS(Int)=  0.00000154
 Variable       Old X    -DE/DX   Delta X   Delta X   Delta X     New X
                                 (Linear)    (Quad)   (Total)
    R1        2.54553   0.00001   0.00000   0.00002   0.00002   2.54556
    R2        2.04427   0.00000   0.00000   0.00000   0.00000   2.04428
    R3        2.65050  -0.00001   0.00000  -0.00001  -0.00001   2.65048
    R4        2.04427   0.00000   0.00000   0.00000   0.00000   2.04427
    R5        3.25559  -0.00001   0.00000  -0.00007  -0.00007   3.25552
    R6        2.04743   0.00000   0.00000  -0.00001  -0.00001   2.04743
    R7        2.55461   0.00000   0.00000  -0.00003  -0.00003   2.55458
    R8        2.95211  -0.00001   0.00000  -0.00002  -0.00002   2.95209
    R9        1.47050   0.00001   0.00000   0.00002   0.00002   1.47052
   R10        3.16172   0.00000   0.00000  -0.00009  -0.00009   3.16163
   R11        3.18493   0.00001   0.00000   0.00017   0.00017   3.18510
   R12        1.47036   0.00000   0.00000   0.00000   0.00000   1.47036
   R13        3.15366   0.00000   0.00000   0.00023   0.00023   3.15389
   R14        3.18041   0.00000   0.00000   0.00000   0.00000   3.18041
   R15        3.15145   0.00000   0.00000   0.00003   0.00003   3.15148
    A1        2.19840   0.00000   0.00000  -0.00002  -0.00002   2.19838
    A2        1.97479   0.00000   0.00000  -0.00002  -0.00002   1.97477
    A3        2.10996   0.00000   0.00000   0.00004   0.00004   2.11000
    A4        2.23169  -0.00001   0.00000  -0.00007  -0.00007   2.23162
    A5        1.93736   0.00000   0.00000   0.00002   0.00002   1.93738
    A6        2.11413   0.00000   0.00000   0.00006   0.00006   2.11418
    A7        1.93817   0.00000   0.00000   0.00002   0.00002   1.93819
    A8        2.16403  -0.00002   0.00000  -0.00031  -0.00031   2.16371
    A9        2.18095   0.00002   0.00000   0.00030   0.00030   2.18125
   A10        2.16099   0.00000   0.00000   0.00000   0.00000   2.16099
   A11        2.13528   0.00000   0.00000   0.00001   0.00001   2.13529
   A12        1.98689   0.00000   0.00000  -0.00001  -0.00001   1.98688
   A13        1.58756   0.00000   0.00000   0.00000   0.00000   1.58756
   A14        2.05954   0.00000   0.00000  -0.00057  -0.00057   2.05898
   A15        2.34556   0.00001   0.00000   0.00185   0.00184   2.34740
   A16        2.01327   0.00000   0.00000   0.00050   0.00050   2.01377
   A17        2.37662   0.00000   0.00000  -0.00037  -0.00037   2.37625
   A18        2.20984  -0.00001   0.00000   0.00011   0.00011   2.20995
   A19        1.79647   0.00000   0.00000   0.00084   0.00084   1.79731
   A20        1.86192  -0.00002   0.00000  -0.00190  -0.00189   1.86002
   A21        1.56009  -0.00001   0.00000  -0.00141  -0.00141   1.55868
    D1       -0.00638   0.00000   0.00000   0.00007   0.00007  -0.00631
    D2        3.13276   0.00000   0.00000   0.00012   0.00012   3.13288
    D3       -3.13839   0.00000   0.00000  -0.00004  -0.00004  -3.13844
    D4        0.00075   0.00000   0.00000   0.00001   0.00001   0.00075
    D5        0.00004   0.00000   0.00000   0.00002   0.00002   0.00006
    D6       -3.13258   0.00000   0.00000  -0.00057  -0.00057  -3.13315
    D7       -3.13252   0.00000   0.00000  -0.00008  -0.00008  -3.13260
    D8        0.01804   0.00000   0.00000  -0.00068  -0.00068   0.01737
    D9       -0.00103   0.00000   0.00000  -0.00003  -0.00003  -0.00106
   D10        3.13830   0.00000   0.00000   0.00002   0.00002   3.13832
   D11       -3.13457   0.00000   0.00000   0.00010   0.00010  -3.13447
   D12       -0.00085   0.00000   0.00000  -0.00005  -0.00005  -0.00090
   D13       -0.00205   0.00000   0.00000   0.00070   0.00070  -0.00135
   D14        3.13166   0.00000   0.00000   0.00056   0.00056   3.13222
   D15       -2.64257   0.00000   0.00000   0.00105   0.00104  -2.64153
   D16       -3.10660   0.00001   0.00000   0.00311   0.00311  -3.10349
   D17        0.46656   0.00001   0.00000   0.00214   0.00214   0.46870
   D18        0.09611   0.00000   0.00000   0.00084   0.00084   0.09696
   D19        0.50924   0.00000   0.00000   0.00037   0.00036   0.50960
   D20        0.04521   0.00000   0.00000   0.00243   0.00243   0.04764
   D21       -2.66482   0.00000   0.00000   0.00146   0.00146  -2.66335
   D22       -3.03526  -0.00001   0.00000   0.00016   0.00016  -3.03510
   D23        3.13493   0.00000   0.00000  -0.00010  -0.00010   3.13483
   D24        0.00108   0.00000   0.00000   0.00004   0.00004   0.00112
         Item               Value     Threshold  Converged?
 Maximum Force            0.000016     0.000450     YES
 RMS     Force            0.000005     0.000300     YES
 Maximum Displacement     0.005115     0.001800     NO 
 RMS     Displacement     0.001336     0.001200     NO 
 Predicted change in Energy=-6.251504D-08
 GradGradGradGradGradGradGradGradGradGradGradGradGradGradGradGradGradGrad

 1|1|UNPC-LAPTOP-5JS4LN2H|Freq|RwB97XD|6-311+G(d,p)|C3H7Be1N1S1(2+)|SOU
 MYO|01-Oct-2021|0||#N Geom=AllCheck Guess=TCheck SCRF=Check GenChk RwB
 97XD/6-311+G(d,p) Freq||Thiazole-Be(2+)@2H2||2,1|C,-0.2708546114,1.238
 1791897,0.0622890259|C,1.072301851,1.1374473385,0.0450427993|H,-0.2972
 83118,-2.0626488252,-0.1071920448|H,-0.8382264475,2.1573382996,0.12137
 66713|H,1.7987607003,1.9382160941,0.0808001232|N,-0.9177489666,-0.0050
 690251,0.00662903|H,-3.102131405,-1.5910341498,0.6448268395|H,-3.50439
 51692,-1.5128391199,-0.0166819472|H,-3.3335537404,1.1039733514,-0.6194
 464205|H,-3.8080098538,0.8361729462,-0.0639463679|C,-0.0223117546,-1.0
 16145346,-0.0515591676|S,1.566841112,-0.5105202105,-0.0422775745|Be,-2
 .4698205968,-0.1824575429,0.0003220334||Version=IA32W-G09RevA.02|State
 =1-A|HF=-585.4745873|RMSD=2.342e-009|RMSF=1.047e-005|ZeroPoint=0.08962
 75|Thermal=0.0979104|Dipole=-5.6896447,-0.420699,0.0012155|DipoleDeriv
 =0.1969469,-0.1402996,-0.0121043,0.2744691,0.0615117,0.0060428,-0.0029
 066,0.0097344,-0.0254132,-0.1505953,0.1635224,0.0082727,-0.0581003,0.0
 261539,0.0066458,-0.0032336,0.0039776,-0.1104115,0.0874024,-0.042054,-
 0.0002506,0.0061712,0.215132,0.0031879,-0.0012966,0.0030013,0.1810386,
 0.0629173,0.0289923,0.0007726,-0.0152469,0.1699889,0.0004148,0.0045737
 ,0.0012655,0.1895209,0.2076724,0.0943019,0.0048636,0.0689005,0.1826181
 ,-0.001535,0.0037828,-0.0015766,0.2054969,-1.6932254,0.0465759,0.01187
 2,0.1860013,-0.3415131,-0.0092794,0.0195499,0.0101506,-0.241015,-0.015
 8814,-0.1270598,-0.0095483,-0.059363,0.0543288,-0.0935156,-0.1096015,-
 0.1968471,0.2107609,0.21851,0.0791007,0.0608761,0.0014592,0.005497,0.1
 266055,0.1429203,0.2216078,0.0550336,-0.0786735,0.1179725,0.0062531,0.
 0241156,0.1368048,-0.0867933,0.1171984,-0.1518977,0.1940644,0.2637267,
 -0.0412591,-0.0643272,0.067599,-0.0363255,0.1032908,-0.1590482,0.16129
 13,0.052026,0.9136174,-0.0334295,-0.0086207,-0.3446007,-0.0878217,0.00
 01879,-0.0192357,0.0007804,-0.0240382,0.1439235,-0.1833584,-0.0059773,
 -0.2247315,0.4181514,0.0010631,-0.008052,0.0014834,0.4121798,1.843659,
 0.0369947,0.0079185,0.0733265,1.1954736,-0.0563154,0.0153491,-0.062970
 8,0.9007567|Polar=84.5757817,0.7072161,64.9793993,-0.1929768,-0.236322
 2,38.4790427|PG=C01 [X(C3H7Be1N1S1)]|NImag=0||0.78305740,-0.14792516,0
 .68534598,-0.01480054,0.03140511,0.12719153,-0.45618752,0.04491604,0.0
 0596139,0.79376974,0.01548759,-0.10690986,-0.00269888,0.14933515,0.547
 95738,0.00417669,-0.00293416,-0.05727905,0.00166767,0.02137336,0.09918
 672,-0.00453415,0.00271654,0.00022707,-0.00687231,-0.00221923,-0.00004
 180,0.07840323,0.00456761,0.00088990,-0.00024833,-0.00050093,0.0021033
 4,-0.00007556,0.07803984,0.34504940,0.00015806,-0.00019094,0.00443508,
 0.00024089,-0.00005126,0.00271782,0.00381342,0.01725514,0.02193465,-0.
 14779005,0.14171989,0.00957390,-0.00622755,0.02290904,0.00144904,0.000
 99603,-0.00043791,0.00001602,0.14642997,0.13513767,-0.26820345,-0.0148
 5760,-0.00268712,0.00514931,-0.00004792,0.00074867,-0.00032568,-0.0000
 9746,-0.13973161,0.28106135,0.00952828,-0.01545933,-0.03211932,-0.0001
 2017,-0.00015330,0.00558052,0.00002372,-0.00008341,0.00156764,-0.00947
 272,0.01623547,0.02339618,-0.00613514,-0.01982839,-0.00094837,-0.19583
 133,-0.15590641,-0.00659227,0.00133251,-0.00020887,-0.00002056,0.00046
 948,0.00023763,-0.00002925,0.19612213,0.00562098,0.00954763,0.00044301
 ,-0.15864612,-0.22188136,-0.00863171,-0.00101675,0.00018186,-0.0000588
 5,-0.00032475,0.00016860,0.00019151,0.16052453,0.22524688,0.00035153,0
 .00060827,0.00056184,-0.00673753,-0.00870140,-0.03000556,-0.00002319,-
 0.00008107,0.00176550,-0.00008116,0.00022824,-0.00353265,0.00679055,0.
 00911874,0.02364432,-0.13205776,-0.04574741,-0.00247520,-0.06112913,-0
 .01358059,0.00005461,0.01070510,-0.00681386,-0.00053080,0.01322245,0.0
 1182493,0.00037932,-0.00437864,0.00416742,0.00039993,0.64638921,-0.056
 11946,-0.21098340,-0.00744829,-0.06547097,-0.00846780,-0.00006440,0.02
 678176,-0.01101616,-0.00057689,-0.02186724,-0.01563001,-0.00012142,-0.
 00110473,0.00303818,-0.00027521,-0.02776217,0.52366386,-0.00222315,-0.
 00670595,-0.06039318,-0.00269215,-0.00078670,0.00738224,0.00128659,-0.
 00027482,-0.00385918,-0.00139182,-0.00067560,-0.00441300,0.00001797,-0
 .00027923,0.00756879,-0.00452002,0.01975140,0.10785019,-0.00006631,0.0
 0128368,-0.00011651,-0.00031954,-0.00021834,-0.00003385,-0.00025615,-0
 .00008308,0.00025140,0.00003904,0.00006567,0.00000195,-0.00007574,0.00
 007177,0.00007847,-0.00214282,-0.00361498,0.00024169,0.08881179,-0.000
 22914,-0.00027626,0.00000608,0.00032208,-0.00022719,-0.00005050,0.0001
 4011,0.00011133,-0.00026887,0.00003022,0.00004203,0.00001255,-0.000002
 50,-0.00001174,-0.00000420,0.00095634,-0.00019384,0.00006865,-0.004775
 29,0.03008475,-0.00000156,0.00122608,0.00043228,-0.00042592,-0.0003040
 3,-0.00007658,0.00008672,-0.00016828,0.00012348,0.00002664,0.00006853,
 0.00005239,-0.00001684,0.00008904,-0.00002103,-0.00241702,-0.00237488,
 0.00043169,0.12929110,-0.03515959,0.22422595,-0.00028061,0.00009251,0.
 00042691,0.00007040,-0.00019820,0.00000470,-0.00009118,0.00003533,-0.0
 0003482,-0.00000576,-0.00004366,-0.00000204,-0.00004391,0.00000070,-0.
 00008380,0.00166943,-0.00127068,-0.00003436,-0.08196813,0.00994817,-0.
 12920262,0.09424676,0.00016095,0.00041791,0.00011173,-0.00006306,0.000
 00461,-0.00003907,-0.00011880,0.00005966,0.00022442,0.00003212,0.00004
 228,0.00002284,-0.00002852,0.00002748,0.00002422,-0.00024630,-0.000563
 13,0.00000322,0.01424984,-0.00851570,0.03094399,-0.00098642,0.02760676
 ,0.00031710,-0.00117187,0.00023744,0.00014325,0.00053672,0.00006626,0.
 00000356,0.00022743,-0.00000422,-0.00005202,-0.00009956,-0.00001668,0.
 00003449,-0.00009052,-0.00007811,0.00130434,0.00269256,0.00033187,-0.1
 3496019,0.02315717,-0.21937420,0.13266500,-0.02865685,0.22175622,-0.00
 012358,0.00120500,0.00022615,-0.00023461,-0.00030161,0.00002703,0.0000
 6397,-0.00006286,0.00000312,-0.00029147,-0.00011139,-0.00029531,-0.000
 02336,0.00005183,-0.00000171,-0.00303440,0.00294160,-0.00047979,0.0000
 2172,0.00031006,0.00052133,-0.00059235,0.00026606,-0.00067216,0.126484
 27,0.00028375,0.00091351,0.00001517,-0.00028262,0.00003676,0.00007556,
 -0.00000714,-0.00000352,-0.00000057,-0.00033717,0.00001390,-0.00034384
 ,-0.00000656,0.00003046,0.00001462,-0.00193747,0.00119001,-0.00004217,
 -0.00003963,-0.00022357,-0.00064739,0.00087504,-0.00095839,0.00105708,
 0.04956032,0.05903939,-0.00041628,-0.00053218,-0.00028329,0.00028674,0
 .00002181,0.00004554,-0.00003649,0.00004994,0.00005536,-0.00005663,-0.
 00018838,0.00018680,-0.00001201,-0.00006798,0.00001866,0.00240609,-0.0
 0171266,0.00047325,-0.00018628,-0.00074110,-0.00048656,0.00055114,-0.0
 0046526,0.00132306,-0.12634359,-0.08278441,0.15950699,-0.00012911,-0.0
 0028794,0.00011511,0.00022224,-0.00000924,-0.00007766,-0.00001430,0.00
 004645,-0.00001214,-0.00011722,-0.00005927,-0.00002869,-0.00002696,-0.
 00005108,-0.00000788,0.00185746,0.00096828,0.00000739,-0.00027400,-0.0
 0103068,-0.00079602,0.00116735,-0.00095739,0.00123731,-0.11593170,-0.0
 5617074,0.12728828,0.13416210,-0.00006059,-0.00079648,-0.00020540,0.00
 022974,0.00019656,-0.00003611,-0.00004133,0.00004774,0.00002305,0.0000
 7882,0.00012247,0.00022809,0.00000944,-0.00003757,0.00001236,0.0012166
 4,-0.00051481,0.00014557,0.00005145,-0.00164212,-0.00077395,0.00168099
 ,-0.00248726,0.00186275,-0.06270215,-0.03986047,0.07754588,0.04849071,
 0.05340047,0.00006589,0.00053456,0.00003385,-0.00005458,-0.00027893,0.
 00003847,0.00006269,-0.00006234,0.00000988,-0.00009004,0.00021005,-0.0
 0004749,0.00000071,0.00007649,-0.00000796,-0.00134990,0.00177424,0.000
 49301,0.00011127,0.00124493,0.00133477,-0.00107060,0.00128776,-0.00144
 439,0.13409070,0.07250877,-0.15507888,-0.12995819,-0.07736376,0.157331
 54,0.00767632,0.02857547,0.00162118,-0.00461822,-0.04412578,-0.0020765
 5,-0.08152734,-0.07737870,-0.00387310,-0.00421308,-0.00423489,-0.00001
 940,-0.00145903,0.00291805,0.00012942,-0.20457056,0.12391660,0.0079322
 0,0.00054283,-0.00057071,0.00107759,-0.00039606,0.00017800,-0.00062000
 ,0.00033352,0.00065131,-0.00047440,-0.00067127,-0.00062560,-0.00003215
 ,0.54933674,-0.00809210,-0.08925623,-0.00485513,-0.00655841,-0.0455858
 5,-0.00255273,-0.08597702,-0.33590534,-0.01665360,-0.00402196,-0.00181
 705,-0.00019999,0.00640940,-0.00431676,-0.00033875,0.11363653,-0.23999
 035,-0.01026345,-0.00085485,0.00048262,-0.00064050,0.00029201,-0.00033
 478,0.00044444,-0.00116261,-0.00093591,0.00097939,0.00009637,0.0006199
 3,-0.00079112,0.03208432,0.78116905,-0.00027998,-0.00532169,0.00903614
 ,-0.00038323,-0.00225783,0.00734085,-0.00432746,-0.01633691,-0.0286007
 7,-0.00012939,-0.00019529,0.00255424,0.00033772,-0.00034400,0.00179228
 ,0.00804164,-0.01079631,-0.05980478,-0.00008635,-0.00010554,-0.0002663
 6,-0.00008238,-0.00014090,0.00002905,0.00006527,-0.00009761,0.00031946
 ,-0.00034499,0.00006652,0.00027249,-0.00259836,0.03582038,0.11020454,-
 0.03069818,0.00511625,0.00065940,-0.06665907,0.02965883,0.00157969,0.0
 0111815,0.00125863,0.00005840,-0.00350428,-0.00070794,-0.00009108,0.01
 034049,-0.01251298,-0.00075869,-0.07800211,0.04482523,0.00297080,-0.00
 034144,0.00015562,-0.00039078,0.00017615,-0.00019117,0.00025370,-0.000
 40609,-0.00043428,0.00044066,0.00008013,0.00020348,-0.00023048,-0.2337
 6447,-0.05483316,-0.00061131,0.39687334,0.06497972,-0.02193230,-0.0021
 6997,0.04220250,-0.16774798,-0.00675034,-0.02076989,0.00019613,0.00037
 180,0.00278419,0.00190605,-0.00019885,0.01006128,-0.01210458,-0.000540
 86,-0.01656040,-0.01870419,-0.00158389,-0.00000111,0.00034845,-0.00015
 701,0.00016288,0.00002343,-0.00017177,-0.00014879,-0.00027968,0.000101
 85,0.00023803,0.00018358,0.00009175,-0.07099313,-0.06768387,-0.0007757
 9,-0.01687203,0.28781205,0.00361658,-0.00151319,0.00877377,0.00217107,
 -0.00648046,-0.03515620,-0.00114822,-0.00000673,-0.00021445,0.00023069
 ,-0.00028927,0.00613533,0.00041684,-0.00039865,-0.00240736,-0.00019692
 ,-0.00187631,0.01730682,0.00001620,0.00009543,0.00013058,0.00006598,0.
 00003854,-0.00002067,-0.00010160,-0.00004991,-0.00003251,0.00011067,0.
 00005601,-0.00011511,-0.00145364,-0.00102599,-0.04270536,-0.00407976,0
 .01196530,0.04588875,-0.01273132,-0.01183647,-0.00047049,0.00401692,-0
 .00083122,-0.00013732,0.00067644,0.00153837,-0.00006990,0.00099245,-0.
 00043870,0.00012538,-0.00029050,-0.00080362,-0.00005594,-0.18852823,-0
 .02222325,-0.00111535,-0.00397125,-0.00525427,0.00224738,-0.01395209,-
 0.01229530,0.00034561,-0.00626589,0.00784518,-0.00344724,-0.02032473,0
 .01146839,-0.00154532,-0.02666938,0.00898149,0.00039881,0.00478738,0.0
 0491675,0.00035210,0.26226022,-0.01381181,0.00124305,0.00050249,-0.002
 79629,-0.00462793,-0.00026639,0.00172323,-0.00138868,0.00002404,-0.000
 83363,-0.00252979,-0.00013033,-0.00015630,0.00011093,-0.00006496,-0.01
 915365,-0.02182835,0.00064297,-0.00613515,-0.01997876,0.00789798,-0.01
 058867,-0.01532290,0.00021241,0.01015455,-0.01896247,0.00779310,0.0087
 2651,-0.00923204,0.00076760,0.00960505,0.00355453,0.00048497,0.0043335
 1,-0.00201709,-0.00051477,0.01893264,0.09097951,-0.00049262,0.00005532
 ,-0.00062709,-0.00005743,-0.00021911,0.00015898,0.00007339,-0.00019506
 ,0.00006921,-0.00002252,-0.00029123,0.00065602,0.00002101,-0.00004783,
 0.00070128,-0.00109608,0.00102817,-0.01336771,0.00539110,0.01174498,-0
 .00650641,-0.00320312,-0.00335466,-0.00280563,-0.00703945,0.01029469,-
 0.00604789,0.00246679,-0.00156100,-0.00282018,0.00038722,0.00007705,-0
 .00017178,0.00019945,-0.00018222,0.00241640,0.00337228,-0.01734910,0.0
 2834480||0.00001838,0.00000273,-0.00000298,-0.00001322,0.00002552,-0.0
 0000118,0.00000241,0.00000020,-0.00001416,-0.00000559,-0.00000181,0.00
 001348,0.00000140,0.00000104,0.00000121,-0.00000354,0.00000714,0.00001
 488,0.00000465,-0.00000611,-0.00000750,0.00001748,-0.00000721,0.000001
 55,0.00000268,0.00000516,0.00001818,-0.00000230,-0.00000014,0.00000818
 ,0.00000337,-0.00000081,-0.00001709,-0.00000142,-0.00000746,-0.0000134
 0,-0.00002430,-0.00001824,-0.00000117|||@


 SLITHERY-DITHERY
 FRIEDRICH A. KEKULE
 DREAMT ON A BUS OF THINGS
 FREUD WOULD THINK KEEN.
 MOST OF THE TIME THEY WERE
 HERPETOLOGICAL
 BITING THEIR TAILS IN THE
 SHAPE OF BENZENE.
 Job cpu time:  0 days  0 hours 16 minutes 49.0 seconds.
 File lengths (MBytes):  RWF=     50 Int=      0 D2E=      0 Chk=      3 Scr=      1
 Normal termination of Gaussian 09 at Fri Oct 01 12:10:12 2021.
