 Entering Link 1 = C:\G09W\l1.exe PID=     21840.
  
 Copyright (c) 1988,1990,1992,1993,1995,1998,2003,2009, Gaussian, Inc.
                  All Rights Reserved.
  
 This is part of the Gaussian(R) 09 program.  It is based on
 the Gaussian(R) 03 system (copyright 2003, Gaussian, Inc.),
 the Gaussian(R) 98 system (copyright 1998, Gaussian, Inc.),
 the Gaussian(R) 94 system (copyright 1995, Gaussian, Inc.),
 the Gaussian 92(TM) system (copyright 1992, Gaussian, Inc.),
 the Gaussian 90(TM) system (copyright 1990, Gaussian, Inc.),
 the Gaussian 88(TM) system (copyright 1988, Gaussian, Inc.),
 the Gaussian 86(TM) system (copyright 1986, Carnegie Mellon
 University), and the Gaussian 82(TM) system (copyright 1983,
 Carnegie Mellon University). Gaussian is a federally registered
 trademark of Gaussian, Inc.
  
 This software contains proprietary and confidential information,
 including trade secrets, belonging to Gaussian, Inc.
  
 This software is provided under written license and may be
 used, copied, transmitted, or stored only in accord with that
 written license.
  
 The following legend is applicable only to US Government
 contracts under FAR:
  
                    RESTRICTED RIGHTS LEGEND
  
 Use, reproduction and disclosure by the US Government is
 subject to restrictions as set forth in subparagraphs (a)
 and (c) of the Commercial Computer Software - Restricted
 Rights clause in FAR 52.227-19.
  
 Gaussian, Inc.
 340 Quinnipiac St., Bldg. 40, Wallingford CT 06492
  
  
 ---------------------------------------------------------------
 Warning -- This program may not be used in any manner that
 competes with the business of Gaussian, Inc. or will provide
 assistance to any competitor of Gaussian, Inc.  The licensee
 of this program is prohibited from giving any competitor of
 Gaussian, Inc. access to this program.  By using this program,
 the user acknowledges that Gaussian, Inc. is engaged in the
 business of creating and licensing software in the field of
 computational chemistry and represents and warrants to the
 licensee that it is not a competitor of Gaussian, Inc. and that
 it will not use this program in any manner prohibited above.
 ---------------------------------------------------------------
  

 Cite this work as:
 Gaussian 09, Revision A.02,
 M. J. Frisch, G. W. Trucks, H. B. Schlegel, G. E. Scuseria, 
 M. A. Robb, J. R. Cheeseman, G. Scalmani, V. Barone, B. Mennucci, 
 G. A. Petersson, H. Nakatsuji, M. Caricato, X. Li, H. P. Hratchian, 
 A. F. Izmaylov, J. Bloino, G. Zheng, J. L. Sonnenberg, M. Hada, 
 M. Ehara, K. Toyota, R. Fukuda, J. Hasegawa, M. Ishida, T. Nakajima, 
 Y. Honda, O. Kitao, H. Nakai, T. Vreven, J. A. Montgomery, Jr., 
 J. E. Peralta, F. Ogliaro, M. Bearpark, J. J. Heyd, E. Brothers, 
 K. N. Kudin, V. N. Staroverov, R. Kobayashi, J. Normand, 
 K. Raghavachari, A. Rendell, J. C. Burant, S. S. Iyengar, J. Tomasi, 
 M. Cossi, N. Rega, J. M. Millam, M. Klene, J. E. Knox, J. B. Cross, 
 V. Bakken, C. Adamo, J. Jaramillo, R. Gomperts, R. E. Stratmann, 
 O. Yazyev, A. J. Austin, R. Cammi, C. Pomelli, J. W. Ochterski, 
 R. L. Martin, K. Morokuma, V. G. Zakrzewski, G. A. Voth, 
 P. Salvador, J. J. Dannenberg, S. Dapprich, A. D. Daniels, 
 O. Farkas, J. B. Foresman, J. V. Ortiz, J. Cioslowski, 
 and D. J. Fox, Gaussian, Inc., Wallingford CT, 2009.
 
 ******************************************
 Gaussian 09:  IA32W-G09RevA.02 11-Jun-2009
                01-Oct-2021 
 ******************************************
 %mem=98MW
 ------------------------------
 # opt freq wb97xd/6-311+g(d,p)
 ------------------------------
 1/14=-1,18=20,19=15,26=3,38=1/1,3;
 2/9=110,12=2,17=6,18=5,40=1/2;
 3/5=4,6=6,7=111,11=2,16=1,25=1,30=1,71=1,74=-58/1,2,3;
 4//1;
 5/5=2,38=5/2;
 6/7=2,8=2,9=2,10=2,28=1/1;
 7//1,2,3,16;
 1/14=-1,18=20,19=15/3(2);
 2/9=110/2;
 99//99;
 2/9=110/2;
 3/5=4,6=6,7=111,11=2,16=1,25=1,30=1,71=1,74=-58/1,2,3;
 4/5=5,16=3/1;
 5/5=2,38=5/2;
 7//1,2,3,16;
 1/14=-1,18=20,19=15/3(-5);
 2/9=110/2;
 6/7=2,8=2,9=2,10=2,19=2,28=1/1;
 99/9=1/99;
 -------------------
 Thiazole-Be(2+)@3H2
 -------------------
 Symbolic Z-matrix:
 Charge =  2 Multiplicity = 1
 C                     0.16366   1.23648  -0.00039 
 C                    -1.17841   1.13137   0.00046 
 H                     0.21033  -2.05829   0.00003 
 H                     0.72655   2.1601   -0.00048 
 H                    -1.90669   1.93047   0.00088 
 N                     0.81639  -0.00122  -0.00068 
 H                     2.84988   0.57852  -1.44136 
 H                     3.53555   0.50082  -1.08872 
 H                     2.84594   0.53913   1.46268 
 H                     3.53326   0.46647   1.11204 
 H                     3.03161  -1.66853   0.36487 
 H                     3.00797  -1.66608  -0.4086 
 S                    -1.66537  -0.51911   0.00017 
 C                    -0.06802  -1.01245  -0.00008 
 Be                    2.39835  -0.1502    0.00021 
 

 GradGradGradGradGradGradGradGradGradGradGradGradGradGradGradGradGradGrad
 Berny optimization.
 Initialization pass.
                           ----------------------------
                           !    Initial Parameters    !
                           ! (Angstroms and Degrees)  !
 --------------------------                            --------------------------
 ! Name  Definition              Value          Derivative Info.                !
 --------------------------------------------------------------------------------
 ! R1    R(1,2)                  1.3462         estimate D2E/DX2                !
 ! R2    R(1,4)                  1.0816         estimate D2E/DX2                !
 ! R3    R(1,6)                  1.3993         estimate D2E/DX2                !
 ! R4    R(2,5)                  1.0812         estimate D2E/DX2                !
 ! R5    R(2,13)                 1.7208         estimate D2E/DX2                !
 ! R6    R(3,14)                 1.0823         estimate D2E/DX2                !
 ! R7    R(6,14)                 1.3434         estimate D2E/DX2                !
 ! R8    R(6,15)                 1.589          estimate D2E/DX2                !
 ! R9    R(7,8)                  0.7749         estimate D2E/DX2                !
 ! R10   R(7,15)                 1.6772         estimate D2E/DX2                !
 ! R11   R(8,15)                 1.7038         estimate D2E/DX2                !
 ! R12   R(9,10)                 0.775          estimate D2E/DX2                !
 ! R13   R(9,15)                 1.6776         estimate D2E/DX2                !
 ! R14   R(10,15)                1.7043         estimate D2E/DX2                !
 ! R15   R(11,12)                0.7738         estimate D2E/DX2                !
 ! R16   R(11,15)                1.685          estimate D2E/DX2                !
 ! R17   R(12,15)                1.6842         estimate D2E/DX2                !
 ! R18   R(13,14)                1.6718         estimate D2E/DX2                !
 ! A1    A(2,1,4)              125.8381         estimate D2E/DX2                !
 ! A2    A(2,1,6)              113.3276         estimate D2E/DX2                !
 ! A3    A(4,1,6)              120.8342         estimate D2E/DX2                !
 ! A4    A(1,2,5)              127.8668         estimate D2E/DX2                !
 ! A5    A(1,2,13)             110.9169         estimate D2E/DX2                !
 ! A6    A(5,2,13)             121.2163         estimate D2E/DX2                !
 ! A7    A(1,6,14)             111.0215         estimate D2E/DX2                !
 ! A8    A(1,6,15)             123.186          estimate D2E/DX2                !
 ! A9    A(14,6,15)            125.7925         estimate D2E/DX2                !
 ! A10   A(2,13,14)             90.7247         estimate D2E/DX2                !
 ! A11   A(3,14,6)             123.924          estimate D2E/DX2                !
 ! A12   A(3,14,13)            122.0668         estimate D2E/DX2                !
 ! A13   A(6,14,13)            114.0093         estimate D2E/DX2                !
 ! A14   A(6,15,7)             103.1094         estimate D2E/DX2                !
 ! A15   A(6,15,8)             128.9276         estimate D2E/DX2                !
 ! A16   A(6,15,9)             103.1552         estimate D2E/DX2                !
 ! A17   A(6,15,10)            129.0083         estimate D2E/DX2                !
 ! A18   A(6,15,11)            117.3073         estimate D2E/DX2                !
 ! A19   A(6,15,12)            116.3986         estimate D2E/DX2                !
 ! A20   A(7,15,9)             119.9292         estimate D2E/DX2                !
 ! A21   A(7,15,10)            102.9581         estimate D2E/DX2                !
 ! A22   A(7,15,11)            118.4463         estimate D2E/DX2                !
 ! A23   A(7,15,12)             94.875          estimate D2E/DX2                !
 ! A24   A(8,15,9)             102.8314         estimate D2E/DX2                !
 ! A25   A(8,15,10)             80.4573         estimate D2E/DX2                !
 ! A26   A(8,15,11)            103.402          estimate D2E/DX2                !
 ! A27   A(8,15,12)             86.9725         estimate D2E/DX2                !
 ! A28   A(9,15,11)             94.6645         estimate D2E/DX2                !
 ! A29   A(9,15,12)            119.0032         estimate D2E/DX2                !
 ! A30   A(10,15,11)            86.2499         estimate D2E/DX2                !
 ! A31   A(10,15,12)           104.0631         estimate D2E/DX2                !
 ! D1    D(4,1,2,5)              0.0208         estimate D2E/DX2                !
 ! D2    D(4,1,2,13)           179.9962         estimate D2E/DX2                !
 ! D3    D(6,1,2,5)            179.9977         estimate D2E/DX2                !
 ! D4    D(6,1,2,13)            -0.0269         estimate D2E/DX2                !
 ! D5    D(2,1,6,14)             0.0021         estimate D2E/DX2                !
 ! D6    D(2,1,6,15)          -179.9195         estimate D2E/DX2                !
 ! D7    D(4,1,6,14)           179.9803         estimate D2E/DX2                !
 ! D8    D(4,1,6,15)             0.0587         estimate D2E/DX2                !
 ! D9    D(1,2,13,14)            0.0342         estimate D2E/DX2                !
 ! D10   D(5,2,13,14)         -179.9885         estimate D2E/DX2                !
 ! D11   D(1,6,14,3)          -179.9876         estimate D2E/DX2                !
 ! D12   D(1,6,14,13)            0.025          estimate D2E/DX2                !
 ! D13   D(15,6,14,3)           -0.0684         estimate D2E/DX2                !
 ! D14   D(15,6,14,13)         179.9441         estimate D2E/DX2                !
 ! D15   D(1,6,15,7)           -61.9971         estimate D2E/DX2                !
 ! D16   D(1,6,15,8)           -55.3229         estimate D2E/DX2                !
 ! D17   D(1,6,15,9)            63.4897         estimate D2E/DX2                !
 ! D18   D(1,6,15,10)           57.011          estimate D2E/DX2                !
 ! D19   D(1,6,15,11)          165.8851         estimate D2E/DX2                !
 ! D20   D(1,6,15,12)         -164.2959         estimate D2E/DX2                !
 ! D21   D(14,6,15,7)          118.0931         estimate D2E/DX2                !
 ! D22   D(14,6,15,8)          124.7673         estimate D2E/DX2                !
 ! D23   D(14,6,15,9)         -116.4201         estimate D2E/DX2                !
 ! D24   D(14,6,15,10)        -122.8987         estimate D2E/DX2                !
 ! D25   D(14,6,15,11)         -14.0247         estimate D2E/DX2                !
 ! D26   D(14,6,15,12)          15.7943         estimate D2E/DX2                !
 ! D27   D(2,13,14,3)          179.9781         estimate D2E/DX2                !
 ! D28   D(2,13,14,6)           -0.0341         estimate D2E/DX2                !
 --------------------------------------------------------------------------------
 Trust Radius=3.00D-01 FncErr=1.00D-07 GrdErr=1.00D-06
 Number of steps in this run=  87 maximum allowed number of steps= 100.
 GradGradGradGradGradGradGradGradGradGradGradGradGradGradGradGradGradGrad

                          Input orientation:                          
 ---------------------------------------------------------------------
 Center     Atomic      Atomic             Coordinates (Angstroms)
 Number     Number       Type             X           Y           Z
 ---------------------------------------------------------------------
      1          6           0        0.163659    1.236479   -0.000391
      2          6           0       -1.178406    1.131365    0.000461
      3          1           0        0.210329   -2.058289    0.000030
      4          1           0        0.726548    2.160098   -0.000477
      5          1           0       -1.906687    1.930467    0.000877
      6          7           0        0.816388   -0.001217   -0.000684
      7          1           0        2.849880    0.578515   -1.441357
      8          1           0        3.535549    0.500817   -1.088720
      9          1           0        2.845942    0.539133    1.462684
     10          1           0        3.533262    0.466474    1.112041
     11          1           0        3.031607   -1.668528    0.364873
     12          1           0        3.007971   -1.666081   -0.408604
     13         16           0       -1.665371   -0.519105    0.000167
     14          6           0       -0.068018   -1.012445   -0.000080
     15          4           0        2.398352   -0.150199    0.000206
 ---------------------------------------------------------------------
                    Distance matrix (angstroms):
                    1          2          3          4          5
     1  C    0.000000
     2  C    1.346175   0.000000
     3  H    3.295099   3.478862   0.000000
     4  H    1.081627   2.164981   4.249855   0.000000
     5  H    2.183564   1.081183   4.515743   2.643229   0.000000
     6  N    1.399266   2.293893   2.144494   2.163181   3.338644
     7  H    3.118507   4.314113   3.999695   3.014312   5.150994
     8  H    3.618743   4.879065   4.334915   3.439182   5.731409
     9  H    3.133931   4.322524   3.978997   3.043057   5.163349
    10  H    3.631066   4.886461   4.318898   3.461748   5.742038
    11  H    4.098489   5.069162   2.871347   4.483877   6.121438
    12  H    4.084312   5.051613   2.854402   4.473377   6.103826
    13  S    2.535237   1.720810   2.426384   3.591574   2.461430
    14  C    2.260826   2.414308   1.082251   3.270530   3.470077
    15  Be   2.629967   3.799422   2.903145   2.851737   4.781478
                    6          7          8          9         10
     6  N    0.000000
     7  H    2.558655   0.000000
     8  H    2.971481   0.774940   0.000000
     9  H    2.559788   2.904311   2.643234   0.000000
    10  H    2.972927   2.645639   2.201030   0.775009   0.000000
    11  H    2.796561   2.888718   2.659501   2.472535   2.316927
    12  H    2.782302   2.475840   2.331597   2.896712   2.671345
    13  S    2.535219   4.865208   5.410682   4.859091   5.406793
    14  C    1.343412   3.622508   4.057190   3.610850   4.048856
    15  Be   1.588964   1.677202   1.703760   1.677605   1.704254
                   11         12         13         14         15
    11  H    0.000000
    12  H    0.773842   0.000000
    13  S    4.849308   4.829366   0.000000
    14  C    3.189249   3.171094   1.671802   0.000000
    15  Be   1.685027   1.684238   4.080433   2.612747   0.000000
 Stoichiometry    C3H9BeNS(2+)
 Framework group  C1[X(C3H9BeNS)]
 Deg. of freedom    39
 Full point group                 C1      NOp   1
 Largest Abelian subgroup         C1      NOp   1
 Largest concise Abelian subgroup C1      NOp   1
                         Standard orientation:                         
 ---------------------------------------------------------------------
 Center     Atomic      Atomic             Coordinates (Angstroms)
 Number     Number       Type             X           Y           Z
 ---------------------------------------------------------------------
      1          6           0        0.163659    1.236479   -0.000391
      2          6           0       -1.178406    1.131365    0.000461
      3          1           0        0.210329   -2.058289    0.000030
      4          1           0        0.726548    2.160098   -0.000477
      5          1           0       -1.906687    1.930467    0.000877
      6          7           0        0.816388   -0.001217   -0.000684
      7          1           0        2.849880    0.578515   -1.441357
      8          1           0        3.535549    0.500817   -1.088720
      9          1           0        2.845942    0.539133    1.462684
     10          1           0        3.533262    0.466474    1.112041
     11          1           0        3.031607   -1.668528    0.364873
     12          1           0        3.007971   -1.666081   -0.408604
     13         16           0       -1.665371   -0.519105    0.000167
     14          6           0       -0.068018   -1.012445   -0.000080
     15          4           0        2.398352   -0.150199    0.000206
 ---------------------------------------------------------------------
 Rotational constants (GHZ):      6.2351428      2.1422991      1.6680734
 Standard basis: 6-311+G(d,p) (5D, 7F)
 There are   194 symmetry adapted basis functions of A   symmetry.
 Integral buffers will be    262144 words long.
 Raffenetti 2 integral format.
 Two-electron integral symmetry is turned on.
   194 basis functions,   302 primitive gaussians,   200 cartesian basis functions
    26 alpha electrons       26 beta electrons
       nuclear repulsion energy       285.4581985221 Hartrees.
 NAtoms=   15 NActive=   15 NUniq=   15 SFac= 7.50D-01 NAtFMM=   80 NAOKFM=F Big=F
 Nuclear repulsion after empirical dispersion term =      285.4512657985 Hartrees.
 One-electron integrals computed using PRISM.
 NBasis=   194 RedAO= T  NBF=   194
 NBsUse=   194 1.00D-06 NBFU=   194
 Harris functional with IExCor= 4639 diagonalized for initial guess.
 ExpMin= 2.07D-02 ExpMax= 9.34D+04 ExpMxC= 3.17D+03 IAcc=3 IRadAn=         0 AccDes= 0.00D+00
 HarFok:  IExCor= 4639 AccDes= 0.00D+00 IRadAn=         0 IDoV= 1
 ScaDFX=  1.000000  1.000000  1.000000  1.000000
 FoFCou: FMM=F IPFlag=           0 FMFlag=      100000 FMFlg1=           0
         NFxFlg=           0 DoJE=T BraDBF=F KetDBF=T FulRan=T
         Omega=  0.000000  0.000000  1.000000  0.000000  0.000000 ICntrl=     500 IOpCl=  0
         NMat0=    1 NMatS0=    1 NMatT0=    0 NMatD0=    1 NMtDS0=    0 NMtDT0=    0
         I1Cent=           4 NGrid=           0.
 Petite list used in FoFCou.
 Initial guess orbital symmetries:
       Occupied  (A) (A) (A) (A) (A) (A) (A) (A) (A) (A) (A) (A)
                 (A) (A) (A) (A) (A) (A) (A) (A) (A) (A) (A) (A)
                 (A) (A)
       Virtual   (A) (A) (A) (A) (A) (A) (A) (A) (A) (A) (A) (A)
                 (A) (A) (A) (A) (A) (A) (A) (A) (A) (A) (A) (A)
                 (A) (A) (A) (A) (A) (A) (A) (A) (A) (A) (A) (A)
                 (A) (A) (A) (A) (A) (A) (A) (A) (A) (A) (A) (A)
                 (A) (A) (A) (A) (A) (A) (A) (A) (A) (A) (A) (A)
                 (A) (A) (A) (A) (A) (A) (A) (A) (A) (A) (A) (A)
                 (A) (A) (A) (A) (A) (A) (A) (A) (A) (A) (A) (A)
                 (A) (A) (A) (A) (A) (A) (A) (A) (A) (A) (A) (A)
                 (A) (A) (A) (A) (A) (A) (A) (A) (A) (A) (A) (A)
                 (A) (A) (A) (A) (A) (A) (A) (A) (A) (A) (A) (A)
                 (A) (A) (A) (A) (A) (A) (A) (A) (A) (A) (A) (A)
                 (A) (A) (A) (A) (A) (A) (A) (A) (A) (A) (A) (A)
                 (A) (A) (A) (A) (A) (A) (A) (A) (A) (A) (A) (A)
                 (A) (A) (A) (A) (A) (A) (A) (A) (A) (A) (A) (A)
 The electronic state of the initial guess is 1-A.
 Requested convergence on RMS density matrix=1.00D-08 within 128 cycles.
 Requested convergence on MAX density matrix=1.00D-06.
 Requested convergence on             energy=1.00D-06.
 No special actions if energy rises.
 FoFJK:  IHMeth= 1 ICntrl=     0 DoSepK=T KAlg= 1 I1Cent= 0 FoldK=F
 FoFJK:  IHMeth= 1 ICntrl=     0 DoSepK=T KAlg= 1 I1Cent= 0 FoldK=F
 FoFJK:  IHMeth= 1 ICntrl=     0 DoSepK=T KAlg= 1 I1Cent= 0 FoldK=F
 FoFJK:  IHMeth= 1 ICntrl=     0 DoSepK=T KAlg= 1 I1Cent= 0 FoldK=F
 FoFJK:  IHMeth= 1 ICntrl=     0 DoSepK=T KAlg= 1 I1Cent= 0 FoldK=F
 FoFJK:  IHMeth= 1 ICntrl=     0 DoSepK=T KAlg= 1 I1Cent= 0 FoldK=F
 FoFJK:  IHMeth= 1 ICntrl=     0 DoSepK=T KAlg= 1 I1Cent= 0 FoldK=F
 FoFJK:  IHMeth= 1 ICntrl=     0 DoSepK=T KAlg= 1 I1Cent= 0 FoldK=F
 FoFJK:  IHMeth= 1 ICntrl=     0 DoSepK=T KAlg= 1 I1Cent= 0 FoldK=F
 FoFJK:  IHMeth= 1 ICntrl=     0 DoSepK=T KAlg= 1 I1Cent= 0 FoldK=F
 FoFJK:  IHMeth= 1 ICntrl=     0 DoSepK=T KAlg= 1 I1Cent= 0 FoldK=F
 FoFJK:  IHMeth= 1 ICntrl=     0 DoSepK=T KAlg= 1 I1Cent= 0 FoldK=F
 FoFJK:  IHMeth= 1 ICntrl=     0 DoSepK=T KAlg= 1 I1Cent= 0 FoldK=F
 FoFJK:  IHMeth= 1 ICntrl=     0 DoSepK=T KAlg= 1 I1Cent= 0 FoldK=F
 SCF Done:  E(RwB97XD) =  -586.676047779     A.U. after   14 cycles
             Convg  =    0.2819D-08             -V/T =  2.0022

 **********************************************************************

            Population analysis using the SCF density.

 **********************************************************************

 Orbital symmetries:
       Occupied  (A) (A) (A) (A) (A) (A) (A) (A) (A) (A) (A) (A)
                 (A) (A) (A) (A) (A) (A) (A) (A) (A) (A) (A) (A)
                 (A) (A)
       Virtual   (A) (A) (A) (A) (A) (A) (A) (A) (A) (A) (A) (A)
                 (A) (A) (A) (A) (A) (A) (A) (A) (A) (A) (A) (A)
                 (A) (A) (A) (A) (A) (A) (A) (A) (A) (A) (A) (A)
                 (A) (A) (A) (A) (A) (A) (A) (A) (A) (A) (A) (A)
                 (A) (A) (A) (A) (A) (A) (A) (A) (A) (A) (A) (A)
                 (A) (A) (A) (A) (A) (A) (A) (A) (A) (A) (A) (A)
                 (A) (A) (A) (A) (A) (A) (A) (A) (A) (A) (A) (A)
                 (A) (A) (A) (A) (A) (A) (A) (A) (A) (A) (A) (A)
                 (A) (A) (A) (A) (A) (A) (A) (A) (A) (A) (A) (A)
                 (A) (A) (A) (A) (A) (A) (A) (A) (A) (A) (A) (A)
                 (A) (A) (A) (A) (A) (A) (A) (A) (A) (A) (A) (A)
                 (A) (A) (A) (A) (A) (A) (A) (A) (A) (A) (A) (A)
                 (A) (A) (A) (A) (A) (A) (A) (A) (A) (A) (A) (A)
                 (A) (A) (A) (A) (A) (A) (A) (A) (A) (A) (A) (A)
 The electronic state is 1-A.
 Alpha  occ. eigenvalues --  -89.40152 -14.84412 -10.71464 -10.66668 -10.64770
 Alpha  occ. eigenvalues --   -8.44094  -6.38874  -6.38443  -6.38328  -4.60611
 Alpha  occ. eigenvalues --   -1.44535  -1.26174  -1.20211  -1.06342  -1.04478
 Alpha  occ. eigenvalues --   -1.01632  -0.98368  -0.98209  -0.97914  -0.87239
 Alpha  occ. eigenvalues --   -0.86898  -0.84473  -0.82466  -0.77535  -0.71963
 Alpha  occ. eigenvalues --   -0.67448
 Alpha virt. eigenvalues --   -0.32876  -0.31458  -0.29807  -0.26855  -0.24998
 Alpha virt. eigenvalues --   -0.23842  -0.21991  -0.21262  -0.19790  -0.18756
 Alpha virt. eigenvalues --   -0.18079  -0.17713  -0.15705  -0.14681  -0.14049
 Alpha virt. eigenvalues --   -0.12720  -0.11708  -0.11290  -0.09984  -0.09455
 Alpha virt. eigenvalues --   -0.08427  -0.07846  -0.07413  -0.06824  -0.06218
 Alpha virt. eigenvalues --   -0.05661  -0.05519  -0.03601  -0.03249  -0.02253
 Alpha virt. eigenvalues --   -0.01556  -0.00952  -0.00083   0.00947   0.02380
 Alpha virt. eigenvalues --    0.02479   0.02613   0.03193   0.05306   0.06580
 Alpha virt. eigenvalues --    0.06622   0.07756   0.08140   0.11133   0.12052
 Alpha virt. eigenvalues --    0.13709   0.13732   0.15505   0.18432   0.19042
 Alpha virt. eigenvalues --    0.19293   0.20241   0.23439   0.26730   0.27341
 Alpha virt. eigenvalues --    0.28729   0.29687   0.32645   0.34220   0.34636
 Alpha virt. eigenvalues --    0.38817   0.39358   0.39643   0.40511   0.44761
 Alpha virt. eigenvalues --    0.45987   0.46140   0.48768   0.50371   0.51256
 Alpha virt. eigenvalues --    0.53167   0.55395   0.58500   0.60450   0.61194
 Alpha virt. eigenvalues --    0.63102   0.67046   0.70300   0.70994   0.71920
 Alpha virt. eigenvalues --    0.75472   0.77071   0.79380   0.82801   0.82958
 Alpha virt. eigenvalues --    0.85902   0.86674   0.92091   0.97817   0.99729
 Alpha virt. eigenvalues --    1.03919   1.06139   1.11797   1.15284   1.21656
 Alpha virt. eigenvalues --    1.24935   1.27269   1.28268   1.31997   1.33250
 Alpha virt. eigenvalues --    1.33430   1.35814   1.38262   1.41970   1.44547
 Alpha virt. eigenvalues --    1.45505   1.45878   1.47732   1.48750   1.51279
 Alpha virt. eigenvalues --    1.54438   1.59424   1.59485   1.61519   1.67019
 Alpha virt. eigenvalues --    1.67477   1.68519   1.70776   1.71949   1.74122
 Alpha virt. eigenvalues --    1.77043   1.81988   1.84181   1.90102   1.93050
 Alpha virt. eigenvalues --    1.96330   1.97307   2.08089   2.13312   2.14995
 Alpha virt. eigenvalues --    2.23391   2.24288   2.29383   2.36171   2.43142
 Alpha virt. eigenvalues --    2.47427   2.52222   2.52383   2.52482   2.54635
 Alpha virt. eigenvalues --    2.56036   2.56233   2.57718   2.63602   2.70237
 Alpha virt. eigenvalues --    2.81258   2.84735   2.85875   2.90558   2.99256
 Alpha virt. eigenvalues --    3.15170   3.29825   3.34580   3.55926   3.63205
 Alpha virt. eigenvalues --    3.83457   4.17447   4.68271   7.73353   8.01706
 Alpha virt. eigenvalues --   17.06620  17.22001  17.28080  23.48587  23.58664
 Alpha virt. eigenvalues --   23.98383  35.30081 188.97990
          Condensed to atoms (all electrons):
              1          2          3          4          5          6
     1  C    5.126562   0.528246   0.015532   0.406140  -0.019760   0.284988
     2  C    0.528246   5.218800  -0.008451  -0.001519   0.377012  -0.126841
     3  H    0.015532  -0.008451   0.368104   0.000085  -0.000006  -0.023394
     4  H    0.406140  -0.001519   0.000085   0.400110  -0.001984  -0.059388
     5  H   -0.019760   0.377012  -0.000006  -0.001984   0.337691   0.011421
     6  N    0.284988  -0.126841  -0.023394  -0.059388   0.011421   6.247200
     7  H    0.005179  -0.002938  -0.000007  -0.000142   0.000001  -0.026115
     8  H    0.000693  -0.001022  -0.000007  -0.000247   0.000000  -0.018606
     9  H    0.004872  -0.002988  -0.000011  -0.000181   0.000001  -0.026235
    10  H    0.000692  -0.001094  -0.000007  -0.000243   0.000000  -0.019065
    11  H   -0.002630   0.000716   0.000982   0.000029   0.000000   0.022516
    12  H   -0.002638   0.000685   0.001012   0.000030   0.000000   0.022421
    13  S    0.165972   0.152390   0.011423  -0.008589   0.004679  -0.087011
    14  C   -0.199342   0.106680   0.365898   0.021296  -0.007313   0.152292
    15  Be  -0.014265  -0.087496  -0.000748   0.005964   0.000186   0.246723
              7          8          9         10         11         12
     1  C    0.005179   0.000693   0.004872   0.000692  -0.002630  -0.002638
     2  C   -0.002938  -0.001022  -0.002988  -0.001094   0.000716   0.000685
     3  H   -0.000007  -0.000007  -0.000011  -0.000007   0.000982   0.001012
     4  H   -0.000142  -0.000247  -0.000181  -0.000243   0.000029   0.000030
     5  H    0.000001   0.000000   0.000001   0.000000   0.000000   0.000000
     6  N   -0.026115  -0.018606  -0.026235  -0.019065   0.022516   0.022421
     7  H    0.419654   0.280479  -0.001903  -0.003234  -0.001368  -0.001392
     8  H    0.280479   0.450236  -0.003207  -0.006612  -0.003487  -0.003888
     9  H   -0.001903  -0.003207   0.418820   0.280588  -0.001395  -0.001365
    10  H   -0.003234  -0.006612   0.280588   0.451295  -0.003998  -0.003495
    11  H   -0.001368  -0.003487  -0.001395  -0.003998   0.440539   0.287348
    12  H   -0.001392  -0.003888  -0.001365  -0.003495   0.287348   0.440326
    13  S    0.000616   0.000065   0.000549   0.000040   0.001641   0.001721
    14  C   -0.004284  -0.002474  -0.003951  -0.002339   0.007343   0.007307
    15  Be   0.141945   0.135169   0.141847   0.135344   0.078536   0.078517
             13         14         15
     1  C    0.165972  -0.199342  -0.014265
     2  C    0.152390   0.106680  -0.087496
     3  H    0.011423   0.365898  -0.000748
     4  H   -0.008589   0.021296   0.005964
     5  H    0.004679  -0.007313   0.000186
     6  N   -0.087011   0.152292   0.246723
     7  H    0.000616  -0.004284   0.141945
     8  H    0.000065  -0.002474   0.135169
     9  H    0.000549  -0.003951   0.141847
    10  H    0.000040  -0.002339   0.135344
    11  H    0.001641   0.007343   0.078536
    12  H    0.001721   0.007307   0.078517
    13  S   15.234414   0.086573   0.023454
    14  C    0.086573   5.854382  -0.141268
    15  Be   0.023454  -0.141268   3.260072
 Mulliken atomic charges:
              1
     1  C   -0.300243
     2  C   -0.152180
     3  H    0.269594
     4  H    0.238639
     5  H    0.298070
     6  N    0.399093
     7  H    0.193510
     8  H    0.172908
     9  H    0.194559
    10  H    0.172128
    11  H    0.173228
    12  H    0.173410
    13  S    0.412063
    14  C   -0.240798
    15  Be  -0.003981
 Sum of Mulliken atomic charges =   2.00000
 Mulliken charges with hydrogens summed into heavy atoms:
              1
     1  C   -0.061603
     2  C    0.145890
     6  N    0.399093
    13  S    0.412063
    14  C    0.028796
    15  Be   1.075762
 Sum of Mulliken charges with hydrogens summed into heavy atoms =   2.00000
 Electronic spatial extent (au):  <R**2>=            733.3092
 Charge=              2.0000 electrons
 Dipole moment (field-independent basis, Debye):
    X=             14.2579    Y=             -0.8289    Z=              0.0040  Tot=             14.2820
 Quadrupole moment (field-independent basis, Debye-Ang):
   XX=             24.6106   YY=            -23.9433   ZZ=            -36.6892
   XY=             -4.7291   XZ=              0.0231   YZ=             -0.0009
 Traceless Quadrupole moment (field-independent basis, Debye-Ang):
   XX=             36.6179   YY=            -11.9360   ZZ=            -24.6819
   XY=             -4.7291   XZ=              0.0231   YZ=             -0.0009
 Octapole moment (field-independent basis, Debye-Ang**2):
  XXX=            155.5571  YYY=             -5.0160  ZZZ=              0.1624  XYY=             11.3562
  XXY=             -3.5237  XXZ=              0.1500  XZZ=             18.6594  YZZ=              0.6617
  YYZ=             -0.1894  XYZ=             -0.0479
 Hexadecapole moment (field-independent basis, Debye-Ang**3):
 XXXX=            -64.0340 YYYY=           -173.6547 ZZZZ=            -58.6132 XXXY=            -30.5924
 XXXZ=              0.7173 YYYX=            -30.0458 YYYZ=              0.1039 ZZZX=              0.4796
 ZZZY=              0.0202 XXYY=            -80.8540 XXZZ=            -66.3303 YYZZ=            -52.4288
 XXYZ=             -0.2563 YYXZ=             -0.5385 ZZXY=              8.1623
 N-N= 2.854512657985D+02 E-N=-1.935339635366D+03  KE= 5.853858061572D+02
 Calling FoFJK, ICntrl=      2127 FMM=F ISym2X=0 I1Cent= 0 IOpClX= 0 NMat=1 NMatS=1 NMatT=0.
 FoFJK:  IHMeth= 1 ICntrl=  2127 DoSepK=T KAlg= 1 I1Cent= 0 FoldK=F
 ***** Axes restored to original set *****
 -------------------------------------------------------------------
 Center     Atomic                   Forces (Hartrees/Bohr)
 Number     Number              X              Y              Z
 -------------------------------------------------------------------
      1        6           0.002865624   -0.000384861    0.000030593
      2        6          -0.002722406   -0.000502742   -0.000042436
      3        1           0.000260581   -0.000420603   -0.000000655
      4        1           0.000309407    0.000343085    0.000001280
      5        1          -0.000165648    0.000134197   -0.000006441
      6        7          -0.002020104    0.001291179    0.000011006
      7        1           0.001784501    0.000469307   -0.000344760
      8        1          -0.000678518    0.000516336   -0.001556750
      9        1           0.001784507    0.000464295    0.000365831
     10        1          -0.000681888    0.000489557    0.001570127
     11        1           0.000530016   -0.001215527   -0.001471673
     12        1           0.000493990   -0.001200769    0.001427864
     13       16          -0.000663903    0.000541552    0.000051606
     14        6           0.000181688   -0.000845671   -0.000047422
     15        4          -0.001277845    0.000320666    0.000011829
 -------------------------------------------------------------------
 Cartesian Forces:  Max     0.002865624 RMS     0.001016841

 GradGradGradGradGradGradGradGradGradGradGradGradGradGradGradGradGradGrad
 Berny optimization.
 Internal  Forces:  Max     0.002715502 RMS     0.000626549
 Search for a local minimum.
 Step number   1 out of a maximum of   87
 All quantities printed in internal units (Hartrees-Bohrs-Radians)
 Mixed Optimization -- En-DIIS/RFO-DIIS
 Second derivative matrix not updated -- first step.
     Eigenvalues ---    0.01960   0.02104   0.02325   0.02331   0.02452
     Eigenvalues ---    0.02625   0.02897   0.07386   0.07409   0.07594
     Eigenvalues ---    0.07639   0.07727   0.07780   0.07841   0.07951
     Eigenvalues ---    0.10187   0.10746   0.15761   0.16000   0.16000
     Eigenvalues ---    0.16000   0.16000   0.16000   0.16000   0.22474
     Eigenvalues ---    0.23498   0.24587   0.25000   0.29879   0.32564
     Eigenvalues ---    0.32602   0.32663   0.35724   0.35799   0.35852
     Eigenvalues ---    0.37817   0.44376   0.51673   0.556381000.00000
     Eigenvalues --- 1000.000001000.000001000.000001000.000001000.00000
     Eigenvalues --- 1000.000001000.000001000.000001000.000001000.00000
     Eigenvalues --- 1000.000001000.000001000.000001000.000001000.00000
     Eigenvalues --- 1000.000001000.000001000.000001000.000001000.00000
     Eigenvalues --- 1000.000001000.000001000.000001000.000001000.00000
     Eigenvalues --- 1000.000001000.000001000.000001000.000001000.00000
     Eigenvalues --- 1000.000001000.000001000.000001000.000001000.00000
     Eigenvalues --- 1000.000001000.00000
 RFO step:  Lambda=-1.81492380D-04 EMin= 1.95960051D-02
 Linear search not attempted -- first point.
 Iteration  1 RMS(Cart)=  0.00549459 RMS(Int)=  0.00000577
 Iteration  2 RMS(Cart)=  0.00000429 RMS(Int)=  0.00000423
 Iteration  3 RMS(Cart)=  0.00000000 RMS(Int)=  0.00000423
 Variable       Old X    -DE/DX   Delta X   Delta X   Delta X     New X
                                 (Linear)    (Quad)   (Total)
    R1        2.54390   0.00272   0.00000   0.00498   0.00498   2.54888
    R2        2.04398   0.00046   0.00000   0.00127   0.00127   2.04525
    R3        2.64423  -0.00050   0.00000  -0.00103  -0.00103   2.64320
    R4        2.04314   0.00021   0.00000   0.00059   0.00059   2.04373
    R5        3.25186  -0.00014   0.00000  -0.00035  -0.00035   3.25150
    R6        2.04516   0.00047   0.00000   0.00132   0.00132   2.04648
    R7        2.53868   0.00088   0.00000   0.00148   0.00148   2.54016
    R8        3.00271   0.00196   0.00000   0.00797   0.00797   3.01067
    R9        1.46442  -0.00139   0.00000  -0.00409  -0.00410   1.46032
   R10        3.16945   0.00125   0.00000   0.01620   0.01620   3.18565
   R11        3.21964   0.00110   0.00000   0.01507   0.01507   3.23471
   R12        1.46455  -0.00140   0.00000  -0.00409  -0.00410   1.46045
   R13        3.17021   0.00126   0.00000   0.01630   0.01630   3.18651
   R14        3.22057   0.00111   0.00000   0.01521   0.01521   3.23578
   R15        1.46235  -0.00129   0.00000  -0.00423  -0.00424   1.45811
   R16        3.18424   0.00127   0.00000   0.01722   0.01722   3.20146
   R17        3.18275   0.00121   0.00000   0.01633   0.01633   3.19908
   R18        3.15925   0.00094   0.00000   0.00223   0.00223   3.16148
    A1        2.19629   0.00021   0.00000   0.00089   0.00089   2.19718
    A2        1.97794  -0.00025   0.00000  -0.00066  -0.00066   1.97728
    A3        2.10896   0.00003   0.00000  -0.00023  -0.00023   2.10873
    A4        2.23170   0.00012   0.00000   0.00038   0.00038   2.23208
    A5        1.93587  -0.00019   0.00000  -0.00040  -0.00040   1.93547
    A6        2.11562   0.00006   0.00000   0.00002   0.00002   2.11564
    A7        1.93769   0.00033   0.00000   0.00129   0.00129   1.93898
    A8        2.15000  -0.00012   0.00000  -0.00048  -0.00048   2.14952
    A9        2.19549  -0.00020   0.00000  -0.00081  -0.00081   2.19468
   A10        1.58345   0.00023   0.00000   0.00073   0.00073   1.58417
   A11        2.16288  -0.00008   0.00000  -0.00043  -0.00043   2.16245
   A12        2.13047   0.00021   0.00000   0.00139   0.00139   2.13185
   A13        1.98984  -0.00013   0.00000  -0.00096  -0.00096   1.98888
   A14        1.79960   0.00028   0.00000   0.00174   0.00173   1.80133
   A15        2.25021  -0.00031   0.00000  -0.00147  -0.00147   2.24875
   A16        1.80040   0.00029   0.00000   0.00187   0.00186   1.80226
   A17        2.25162  -0.00030   0.00000  -0.00138  -0.00137   2.25025
   A18        2.04740   0.00016   0.00000   0.00045   0.00044   2.04784
   A19        2.03154   0.00007   0.00000  -0.00026  -0.00026   2.03128
   A20        2.09316  -0.00039   0.00000  -0.00274  -0.00273   2.09042
   A21        1.79696  -0.00003   0.00000   0.00008   0.00008   1.79704
   A22        2.06728  -0.00046   0.00000  -0.00252  -0.00251   2.06477
   A23        1.65588   0.00019   0.00000   0.00166   0.00165   1.65753
   A24        1.79475  -0.00004   0.00000   0.00007   0.00007   1.79482
   A25        1.40424   0.00056   0.00000   0.00389   0.00388   1.40812
   A26        1.80470  -0.00011   0.00000  -0.00107  -0.00107   1.80363
   A27        1.51796   0.00025   0.00000   0.00119   0.00119   1.51914
   A28        1.65221   0.00016   0.00000   0.00147   0.00147   1.65367
   A29        2.07700  -0.00040   0.00000  -0.00209  -0.00207   2.07493
   A30        1.50534   0.00019   0.00000   0.00081   0.00081   1.50615
   A31        1.81624  -0.00003   0.00000  -0.00048  -0.00049   1.81576
    D1        0.00036  -0.00001   0.00000  -0.00025  -0.00025   0.00012
    D2        3.14153   0.00001   0.00000   0.00054   0.00054  -3.14112
    D3        3.14155   0.00001   0.00000   0.00044   0.00044  -3.14119
    D4       -0.00047   0.00003   0.00000   0.00123   0.00123   0.00076
    D5        0.00004  -0.00001   0.00000  -0.00037  -0.00037  -0.00033
    D6       -3.14019  -0.00001   0.00000  -0.00059  -0.00059  -3.14077
    D7        3.14125   0.00000   0.00000   0.00028   0.00028   3.14153
    D8        0.00102   0.00000   0.00000   0.00006   0.00006   0.00109
    D9        0.00060  -0.00003   0.00000  -0.00136  -0.00136  -0.00076
   D10       -3.14139  -0.00001   0.00000  -0.00063  -0.00063   3.14116
   D11       -3.14138   0.00000   0.00000   0.00001   0.00001  -3.14137
   D12        0.00044  -0.00002   0.00000  -0.00071  -0.00071  -0.00027
   D13       -0.00119   0.00001   0.00000   0.00023   0.00023  -0.00096
   D14        3.14062  -0.00001   0.00000  -0.00048  -0.00048   3.14014
   D15       -1.08205   0.00009   0.00000   0.00080   0.00080  -1.08126
   D16       -0.96557  -0.00013   0.00000  -0.00165  -0.00165  -0.96722
   D17        1.10810  -0.00009   0.00000  -0.00064  -0.00064   1.10746
   D18        0.99503   0.00012   0.00000   0.00177   0.00177   0.99680
   D19        2.89524   0.00033   0.00000   0.00233   0.00232   2.89757
   D20       -2.86750  -0.00032   0.00000  -0.00202  -0.00201  -2.86951
   D21        2.06111   0.00008   0.00000   0.00055   0.00055   2.06166
   D22        2.17760  -0.00013   0.00000  -0.00191  -0.00191   2.17570
   D23       -2.03191  -0.00009   0.00000  -0.00090  -0.00090  -2.03281
   D24       -2.14499   0.00012   0.00000   0.00152   0.00151  -2.14347
   D25       -0.24478   0.00033   0.00000   0.00208   0.00207  -0.24270
   D26        0.27566  -0.00032   0.00000  -0.00227  -0.00226   0.27340
   D27        3.14121   0.00001   0.00000   0.00049   0.00049  -3.14149
   D28       -0.00060   0.00003   0.00000   0.00119   0.00119   0.00059
         Item               Value     Threshold  Converged?
 Maximum Force            0.002716     0.000450     NO 
 RMS     Force            0.000627     0.000300     NO 
 Maximum Displacement     0.016366     0.001800     NO 
 RMS     Displacement     0.005495     0.001200     NO 
 Predicted change in Energy=-9.089450D-05
 GradGradGradGradGradGradGradGradGradGradGradGradGradGradGradGradGradGrad

                          Input orientation:                          
 ---------------------------------------------------------------------
 Center     Atomic      Atomic             Coordinates (Angstroms)
 Number     Number       Type             X           Y           Z
 ---------------------------------------------------------------------
      1          6           0        0.161174    1.237387   -0.000151
      2          6           0       -1.183518    1.132081    0.000041
      3          1           0        0.208146   -2.058858   -0.000122
      4          1           0        0.725241    2.161075   -0.000305
      5          1           0       -1.912308    1.931142   -0.000027
      6          7           0        0.812820   -0.000266   -0.000504
      7          1           0        2.855760    0.583014   -1.447430
      8          1           0        3.539512    0.503196   -1.096308
      9          1           0        2.852145    0.543151    1.469186
     10          1           0        3.537467    0.468406    1.119862
     11          1           0        3.035978   -1.677188    0.363403
     12          1           0        3.010898   -1.674684   -0.407784
     13         16           0       -1.669787   -0.518398    0.001010
     14          6           0       -0.071475   -1.012630   -0.000151
     15          4           0        2.398952   -0.149944    0.000306
 ---------------------------------------------------------------------
                    Distance matrix (angstroms):
                    1          2          3          4          5
     1  C    0.000000
     2  C    1.348809   0.000000
     3  H    3.296580   3.481210   0.000000
     4  H    1.082299   2.168454   4.251497   0.000000
     5  H    2.186464   1.081496   4.518454   2.647552   0.000000
     6  N    1.398723   2.295120   2.145561   2.163115   3.340159
     7  H    3.127877   4.325785   4.010492   3.020523   5.162063
     8  H    3.626812   4.889222   4.343241   3.445273   5.741359
     9  H    3.143603   4.334951   3.989994   3.049722   5.175434
    10  H    3.639384   4.897159   4.327333   3.468216   5.752721
    11  H    4.109917   5.082143   2.876536   4.494892   6.134954
    12  H    4.094783   5.063337   2.858181   4.483672   6.116061
    13  S    2.536770   1.720622   2.428920   3.593848   2.461517
    14  C    2.262013   2.415870   1.082950   3.272180   3.471954
    15  Be   2.632934   3.804955   2.905785   2.853440   4.787263
                    6          7          8          9         10
     6  N    0.000000
     7  H    2.570490   0.000000
     8  H    2.981461   0.772771   0.000000
     9  H    2.571796   2.916891   2.656281   0.000000
    10  H    2.983048   2.658731   2.216444   0.772839   0.000000
    11  H    2.808368   2.901743   2.671775   2.487259   2.329655
    12  H    2.793045   2.490407   2.344495   2.909813   2.683991
    13  S    2.536100   4.877670   5.420753   4.871375   5.416743
    14  C    1.344195   3.634474   4.066758   3.623115   4.058615
    15  Be   1.593179   1.685776   1.711733   1.686231   1.712302
                   11         12         13         14         15
    11  H    0.000000
    12  H    0.771599   0.000000
    13  S    4.859871   4.838690   0.000000
    14  C    3.198448   3.178915   1.672982   0.000000
    15  Be   1.694142   1.692881   4.085388   2.616723   0.000000
 Stoichiometry    C3H9BeNS(2+)
 Framework group  C1[X(C3H9BeNS)]
 Deg. of freedom    39
 Full point group                 C1      NOp   1
 Largest Abelian subgroup         C1      NOp   1
 Largest concise Abelian subgroup C1      NOp   1
                         Standard orientation:                         
 ---------------------------------------------------------------------
 Center     Atomic      Atomic             Coordinates (Angstroms)
 Number     Number       Type             X           Y           Z
 ---------------------------------------------------------------------
      1          6           0        0.163347    1.236996   -0.000105
      2          6           0       -1.181308    1.131211   -0.000073
      3          1           0        0.211493   -2.059232   -0.000779
      4          1           0        0.727085    2.160885   -0.000004
      5          1           0       -1.910382    1.930013   -0.000045
      6          7           0        0.815434   -0.000425   -0.000657
      7          1           0        2.858314    0.583893   -1.447250
      8          1           0        3.542058    0.504243   -1.096075
      9          1           0        2.854415    0.543403    1.469358
     10          1           0        3.539799    0.468977    1.120088
     11          1           0        3.039152   -1.676633    0.363118
     12          1           0        3.014150   -1.673972   -0.408072
     13         16           0       -1.666989   -0.519441    0.000492
     14          6           0       -0.068501   -1.013104   -0.000611
     15          4           0        2.401619   -0.149539    0.000282
 ---------------------------------------------------------------------
 Rotational constants (GHZ):      6.2211811      2.1357690      1.6638761
 Standard basis: 6-311+G(d,p) (5D, 7F)
 There are   194 symmetry adapted basis functions of A   symmetry.
 Integral buffers will be    262144 words long.
 Raffenetti 2 integral format.
 Two-electron integral symmetry is turned on.
   194 basis functions,   302 primitive gaussians,   200 cartesian basis functions
    26 alpha electrons       26 beta electrons
       nuclear repulsion energy       285.1590272329 Hartrees.
 NAtoms=   15 NActive=   15 NUniq=   15 SFac= 7.50D-01 NAtFMM=   80 NAOKFM=F Big=F
 Nuclear repulsion after empirical dispersion term =      285.1521290119 Hartrees.
 One-electron integrals computed using PRISM.
 NBasis=   194 RedAO= T  NBF=   194
 NBsUse=   194 1.00D-06 NBFU=   194
 Initial guess read from the read-write file.
 B after Tr=     0.000000    0.000000    0.000000
         Rot=    1.000000    0.000000    0.000000    0.000000 Ang=   0.00 deg.
 Initial guess orbital symmetries:
       Occupied  (A) (A) (A) (A) (A) (A) (A) (A) (A) (A) (A) (A)
                 (A) (A) (A) (A) (A) (A) (A) (A) (A) (A) (A) (A)
                 (A) (A)
       Virtual   (A) (A) (A) (A) (A) (A) (A) (A) (A) (A) (A) (A)
                 (A) (A) (A) (A) (A) (A) (A) (A) (A) (A) (A) (A)
                 (A) (A) (A) (A) (A) (A) (A) (A) (A) (A) (A) (A)
                 (A) (A) (A) (A) (A) (A) (A) (A) (A) (A) (A) (A)
                 (A) (A) (A) (A) (A) (A) (A) (A) (A) (A) (A) (A)
                 (A) (A) (A) (A) (A) (A) (A) (A) (A) (A) (A) (A)
                 (A) (A) (A) (A) (A) (A) (A) (A) (A) (A) (A) (A)
                 (A) (A) (A) (A) (A) (A) (A) (A) (A) (A) (A) (A)
                 (A) (A) (A) (A) (A) (A) (A) (A) (A) (A) (A) (A)
                 (A) (A) (A) (A) (A) (A) (A) (A) (A) (A) (A) (A)
                 (A) (A) (A) (A) (A) (A) (A) (A) (A) (A) (A) (A)
                 (A) (A) (A) (A) (A) (A) (A) (A) (A) (A) (A) (A)
                 (A) (A) (A) (A) (A) (A) (A) (A) (A) (A) (A) (A)
                 (A) (A) (A) (A) (A) (A) (A) (A) (A) (A) (A) (A)
 Requested convergence on RMS density matrix=1.00D-08 within 128 cycles.
 Requested convergence on MAX density matrix=1.00D-06.
 Requested convergence on             energy=1.00D-06.
 No special actions if energy rises.
 FoFJK:  IHMeth= 1 ICntrl=     0 DoSepK=T KAlg= 1 I1Cent= 0 FoldK=F
 FoFJK:  IHMeth= 1 ICntrl=     0 DoSepK=T KAlg= 1 I1Cent= 0 FoldK=F
 FoFJK:  IHMeth= 1 ICntrl=     0 DoSepK=T KAlg= 1 I1Cent= 0 FoldK=F
 FoFJK:  IHMeth= 1 ICntrl=     0 DoSepK=T KAlg= 1 I1Cent= 0 FoldK=F
 FoFJK:  IHMeth= 1 ICntrl=     0 DoSepK=T KAlg= 1 I1Cent= 0 FoldK=F
 FoFJK:  IHMeth= 1 ICntrl=     0 DoSepK=T KAlg= 1 I1Cent= 0 FoldK=F
 FoFJK:  IHMeth= 1 ICntrl=     0 DoSepK=T KAlg= 1 I1Cent= 0 FoldK=F
 FoFJK:  IHMeth= 1 ICntrl=     0 DoSepK=T KAlg= 1 I1Cent= 0 FoldK=F
 FoFJK:  IHMeth= 1 ICntrl=     0 DoSepK=T KAlg= 1 I1Cent= 0 FoldK=F
 FoFJK:  IHMeth= 1 ICntrl=     0 DoSepK=T KAlg= 1 I1Cent= 0 FoldK=F
 SCF Done:  E(RwB97XD) =  -586.676181086     A.U. after   10 cycles
             Convg  =    0.4627D-08             -V/T =  2.0022
 Calling FoFJK, ICntrl=      2127 FMM=F ISym2X=0 I1Cent= 0 IOpClX= 0 NMat=1 NMatS=1 NMatT=0.
 FoFJK:  IHMeth= 1 ICntrl=  2127 DoSepK=T KAlg= 1 I1Cent= 0 FoldK=F
 ***** Axes restored to original set *****
 -------------------------------------------------------------------
 Center     Atomic                   Forces (Hartrees/Bohr)
 Number     Number              X              Y              Z
 -------------------------------------------------------------------
      1        6           0.000577899   -0.000317375   -0.000051608
      2        6          -0.000290129   -0.000320782    0.000063499
      3        1           0.000027741    0.000059553    0.000006427
      4        1          -0.000058653   -0.000014577   -0.000001023
      5        1           0.000023724    0.000003754    0.000012874
      6        7          -0.000654941    0.000521417   -0.000007212
      7        1           0.000429011    0.000390022   -0.000576734
      8        1           0.000344992    0.000210101   -0.000605623
      9        1           0.000427689    0.000385858    0.000590642
     10        1           0.000340607    0.000199838    0.000613413
     11        1           0.000422285   -0.000753480   -0.000051908
     12        1           0.000313103   -0.000770659    0.000013655
     13       16           0.000043461    0.000413460   -0.000072797
     14        6           0.000226062   -0.000356875    0.000052143
     15        4          -0.002172850    0.000349743    0.000014252
 -------------------------------------------------------------------
 Cartesian Forces:  Max     0.002172850 RMS     0.000480595

 GradGradGradGradGradGradGradGradGradGradGradGradGradGradGradGradGradGrad
 Berny optimization.
 Using GEDIIS/GDIIS optimizer.
 Internal  Forces:  Max     0.000852073 RMS     0.000245065
 Search for a local minimum.
 Step number   2 out of a maximum of   87
 All quantities printed in internal units (Hartrees-Bohrs-Radians)
 Mixed Optimization -- En-DIIS/RFO-DIIS
 Swaping is turned off.
 Update second derivatives using D2CorX and points    1    2
 DE= -1.33D-04 DEPred=-9.09D-05 R= 1.47D+00
 SS=  1.41D+00  RLast= 4.24D-02 DXNew= 5.0454D-01 1.2734D-01
 Trust test= 1.47D+00 RLast= 4.24D-02 DXMaxT set to 3.00D-01
     Eigenvalues ---    0.01961   0.02108   0.02325   0.02331   0.02452
     Eigenvalues ---    0.02624   0.02897   0.03392   0.07407   0.07478
     Eigenvalues ---    0.07639   0.07692   0.07735   0.07781   0.07960
     Eigenvalues ---    0.10178   0.10728   0.15765   0.15976   0.16000
     Eigenvalues ---    0.16000   0.16000   0.16000   0.16045   0.22476
     Eigenvalues ---    0.23383   0.24992   0.25608   0.30350   0.32522
     Eigenvalues ---    0.32585   0.33992   0.35760   0.35845   0.36317
     Eigenvalues ---    0.37884   0.44460   0.52210   0.590261000.00000
     Eigenvalues --- 1000.000001000.000001000.000001000.000001000.00000
     Eigenvalues --- 1000.000001000.000001000.000001000.000001000.00000
     Eigenvalues --- 1000.000001000.000001000.000001000.000001000.00000
     Eigenvalues --- 1000.000001000.000001000.000001000.000001000.00000
     Eigenvalues --- 1000.000001000.000001000.000001000.000001000.00000
     Eigenvalues --- 1000.000001000.000001000.000001000.000001000.00000
     Eigenvalues --- 1000.000001000.000001000.000001000.000001000.00000
     Eigenvalues --- 1000.000001000.00000
 En-DIIS/RFO-DIIS IScMMF=        0 using points:     2    1
 RFO step:  Lambda=-2.35589178D-05.
 DIIS coeffs:      1.88750     -0.88750
 Iteration  1 RMS(Cart)=  0.00686157 RMS(Int)=  0.00001364
 Iteration  2 RMS(Cart)=  0.00001056 RMS(Int)=  0.00000986
 Iteration  3 RMS(Cart)=  0.00000000 RMS(Int)=  0.00000986
 Variable       Old X    -DE/DX   Delta X   Delta X   Delta X     New X
                                  (DIIS)     (GDIIS)  (Total)
    R1        2.54888   0.00017   0.00442  -0.00251   0.00191   2.55079
    R2        2.04525  -0.00004   0.00113  -0.00100   0.00013   2.04538
    R3        2.64320  -0.00049  -0.00091  -0.00145  -0.00236   2.64084
    R4        2.04373  -0.00001   0.00052  -0.00043   0.00010   2.04383
    R5        3.25150  -0.00029  -0.00031  -0.00139  -0.00170   3.24980
    R6        2.04648  -0.00005   0.00117  -0.00108   0.00009   2.04657
    R7        2.54016  -0.00001   0.00131  -0.00095   0.00036   2.54052
    R8        3.01067   0.00010   0.00707  -0.00410   0.00297   3.01364
    R9        1.46032  -0.00015  -0.00364   0.00187  -0.00178   1.45854
   R10        3.18565   0.00081   0.01438   0.00958   0.02397   3.20962
   R11        3.23471   0.00073   0.01337   0.00941   0.02278   3.25749
   R12        1.46045  -0.00015  -0.00364   0.00187  -0.00178   1.45867
   R13        3.18651   0.00082   0.01447   0.00974   0.02421   3.21073
   R14        3.23578   0.00074   0.01350   0.00941   0.02291   3.25870
   R15        1.45811  -0.00010  -0.00376   0.00204  -0.00175   1.45636
   R16        3.20146   0.00085   0.01529   0.01047   0.02576   3.22722
   R17        3.19908   0.00083   0.01449   0.01040   0.02490   3.22398
   R18        3.16148   0.00010   0.00198  -0.00086   0.00112   3.16259
    A1        2.19718  -0.00002   0.00079  -0.00076   0.00002   2.19720
    A2        1.97728  -0.00005  -0.00059  -0.00014  -0.00073   1.97655
    A3        2.10873   0.00007  -0.00020   0.00091   0.00071   2.10944
    A4        2.23208  -0.00003   0.00034  -0.00054  -0.00020   2.23188
    A5        1.93547   0.00000  -0.00035   0.00030  -0.00006   1.93540
    A6        2.11564   0.00002   0.00001   0.00025   0.00026   2.11590
    A7        1.93898   0.00021   0.00114   0.00075   0.00189   1.94087
    A8        2.14952  -0.00005  -0.00043  -0.00007  -0.00050   2.14902
    A9        2.19468  -0.00016  -0.00072  -0.00068  -0.00139   2.19329
   A10        1.58417   0.00004   0.00065   0.00012   0.00076   1.58494
   A11        2.16245   0.00006  -0.00038   0.00058   0.00020   2.16265
   A12        2.13185   0.00014   0.00123   0.00044   0.00167   2.13352
   A13        1.98888  -0.00020  -0.00085  -0.00101  -0.00187   1.98701
   A14        1.80133   0.00009   0.00154   0.00067   0.00219   1.80351
   A15        2.24875  -0.00004  -0.00130   0.00022  -0.00106   2.24768
   A16        1.80226   0.00010   0.00165   0.00078   0.00241   1.80467
   A17        2.25025  -0.00004  -0.00122   0.00031  -0.00090   2.24935
   A18        2.04784   0.00012   0.00039   0.00074   0.00112   2.04896
   A19        2.03128   0.00000  -0.00023  -0.00033  -0.00058   2.03070
   A20        2.09042  -0.00018  -0.00243  -0.00158  -0.00400   2.08643
   A21        1.79704  -0.00003   0.00008  -0.00023  -0.00015   1.79689
   A22        2.06477  -0.00015  -0.00223  -0.00084  -0.00304   2.06173
   A23        1.65753   0.00007   0.00147   0.00064   0.00210   1.65963
   A24        1.79482  -0.00003   0.00006  -0.00023  -0.00016   1.79466
   A25        1.40812   0.00014   0.00344   0.00097   0.00439   1.41251
   A26        1.80363  -0.00015  -0.00095  -0.00162  -0.00257   1.80106
   A27        1.51914   0.00002   0.00105  -0.00039   0.00065   1.51980
   A28        1.65367   0.00003   0.00130   0.00031   0.00159   1.65527
   A29        2.07493  -0.00008  -0.00184  -0.00024  -0.00205   2.07288
   A30        1.50615  -0.00006   0.00071  -0.00107  -0.00036   1.50579
   A31        1.81576  -0.00004  -0.00043  -0.00071  -0.00115   1.81461
    D1        0.00012   0.00001  -0.00022   0.00076   0.00054   0.00066
    D2       -3.14112  -0.00002   0.00048  -0.00194  -0.00146   3.14061
    D3       -3.14119  -0.00001   0.00039  -0.00128  -0.00089   3.14111
    D4        0.00076  -0.00004   0.00109  -0.00398  -0.00289  -0.00213
    D5       -0.00033   0.00001  -0.00033   0.00098   0.00065   0.00032
    D6       -3.14077   0.00001  -0.00052   0.00106   0.00054  -3.14024
    D7        3.14153  -0.00001   0.00025  -0.00095  -0.00070   3.14083
    D8        0.00109  -0.00001   0.00006  -0.00087  -0.00081   0.00027
    D9       -0.00076   0.00004  -0.00121   0.00456   0.00336   0.00259
   D10        3.14116   0.00002  -0.00056   0.00207   0.00151  -3.14052
   D11       -3.14137   0.00000   0.00001  -0.00018  -0.00017  -3.14154
   D12       -0.00027   0.00002  -0.00063   0.00263   0.00200   0.00173
   D13       -0.00096   0.00000   0.00021  -0.00026  -0.00005  -0.00101
   D14        3.14014   0.00003  -0.00043   0.00255   0.00212  -3.14093
   D15       -1.08126   0.00006   0.00071   0.00048   0.00118  -1.08007
   D16       -0.96722  -0.00008  -0.00147  -0.00129  -0.00275  -0.96997
   D17        1.10746  -0.00006  -0.00057  -0.00064  -0.00121   1.10625
   D18        0.99680   0.00008   0.00157   0.00105   0.00262   0.99941
   D19        2.89757   0.00009   0.00206   0.00044   0.00248   2.90005
   D20       -2.86951  -0.00008  -0.00178  -0.00053  -0.00230  -2.87181
   D21        2.06166   0.00005   0.00048   0.00057   0.00105   2.06271
   D22        2.17570  -0.00008  -0.00169  -0.00120  -0.00288   2.17281
   D23       -2.03281  -0.00006  -0.00079  -0.00055  -0.00134  -2.03415
   D24       -2.14347   0.00008   0.00134   0.00115   0.00249  -2.14099
   D25       -0.24270   0.00008   0.00184   0.00053   0.00235  -0.24035
   D26        0.27340  -0.00008  -0.00201  -0.00044  -0.00243   0.27097
   D27       -3.14149  -0.00001   0.00043  -0.00139  -0.00095   3.14074
   D28        0.00059  -0.00004   0.00105  -0.00414  -0.00308  -0.00249
         Item               Value     Threshold  Converged?
 Maximum Force            0.000852     0.000450     NO 
 RMS     Force            0.000245     0.000300     YES
 Maximum Displacement     0.023679     0.001800     NO 
 RMS     Displacement     0.006863     0.001200     NO 
 Predicted change in Energy=-6.286038D-05
 GradGradGradGradGradGradGradGradGradGradGradGradGradGradGradGradGradGrad

                          Input orientation:                          
 ---------------------------------------------------------------------
 Center     Atomic      Atomic             Coordinates (Angstroms)
 Number     Number       Type             X           Y           Z
 ---------------------------------------------------------------------
      1          6           0        0.158722    1.237799   -0.000338
      2          6           0       -1.186962    1.132250    0.000596
      3          1           0        0.206682   -2.058756    0.000317
      4          1           0        0.722733    2.161601   -0.000020
      5          1           0       -1.915723    1.931407    0.001225
      6          7           0        0.809032    0.000854   -0.000356
      7          1           0        2.860707    0.589829   -1.456740
      8          1           0        3.543693    0.505899   -1.107167
      9          1           0        2.857578    0.550581    1.478528
     10          1           0        3.541969    0.471476    1.130425
     11          1           0        3.040397   -1.688854    0.363019
     12          1           0        3.012228   -1.687214   -0.407137
     13         16           0       -1.672676   -0.517452   -0.001945
     14          6           0       -0.074088   -1.012788    0.000177
     15          4           0        2.396712   -0.149147    0.000443
 ---------------------------------------------------------------------
                    Distance matrix (angstroms):
                    1          2          3          4          5
     1  C    0.000000
     2  C    1.349818   0.000000
     3  H    3.296903   3.482063   0.000000
     4  H    1.082368   2.169447   4.251790   0.000000
     5  H    2.187331   1.081547   4.519514   2.648480   0.000000
     6  N    1.397474   2.294352   2.145884   2.162470   3.339360
     7  H    3.137148   4.336090   4.022669   3.027117   5.171052
     8  H    3.635764   4.898832   4.351967   3.453251   5.750290
     9  H    3.153274   4.345219   4.002623   3.055987   5.183967
    10  H    3.648594   4.906723   4.336284   3.475992   5.761328
    11  H    4.123272   5.095148   2.880680   4.508809   6.148195
    12  H    4.106542   5.074330   2.859222   4.496767   6.127470
    13  S    2.536716   1.719721   2.430558   3.593789   2.460893
    14  C    2.262596   2.416542   1.082996   3.272868   3.472737
    15  Be   2.632911   3.805877   2.905655   2.853378   4.788090
                    6          7          8          9         10
     6  N    0.000000
     7  H    2.584050   0.000000
     8  H    2.993071   0.771826   0.000000
     9  H    2.585699   2.935532   2.675550   0.000000
    10  H    2.994846   2.677975   2.237858   0.771896   0.000000
    11  H    2.822435   2.921678   2.689181   2.508555   2.346809
    12  H    2.805195   2.511881   2.362677   2.930422   2.702715
    13  S    2.535255   4.888156   5.429482   4.884230   5.427041
    14  C    1.344385   3.647466   4.076881   3.636524   4.068952
    15  Be   1.594750   1.698458   1.723790   1.699045   1.724427
                   11         12         13         14         15
    11  H    0.000000
    12  H    0.770673   0.000000
    13  S    4.870158   4.845705   0.000000
    14  C    3.207605   3.185295   1.673573   0.000000
    15  Be   1.707772   1.706057   4.086022   2.617389   0.000000
 Stoichiometry    C3H9BeNS(2+)
 Framework group  C1[X(C3H9BeNS)]
 Deg. of freedom    39
 Full point group                 C1      NOp   1
 Largest Abelian subgroup         C1      NOp   1
 Largest concise Abelian subgroup C1      NOp   1
                         Standard orientation:                         
 ---------------------------------------------------------------------
 Center     Atomic      Atomic             Coordinates (Angstroms)
 Number     Number       Type             X           Y           Z
 ---------------------------------------------------------------------
      1          6           0        0.162615    1.236991   -0.000524
      2          6           0       -1.182995    1.130512    0.001074
      3          1           0        0.212858   -2.059528    0.001729
      4          1           0        0.725987    2.161184   -0.000917
      5          1           0       -1.912309    1.929164    0.001642
      6          7           0        0.813781    0.000497   -0.000231
      7          1           0        2.864385    0.590175   -1.457838
      8          1           0        3.547588    0.506890   -1.108535
      9          1           0        2.862619    0.552368    1.477450
     10          1           0        3.546906    0.473567    1.129075
     11          1           0        3.046480   -1.687487    0.362959
     12          1           0        3.017960   -1.686246   -0.407185
     13         16           0       -1.667568   -0.519527   -0.000435
     14          6           0       -0.068636   -1.013755    0.001203
     15          4           0        2.401564   -0.148405   -0.000081
 ---------------------------------------------------------------------
 Rotational constants (GHZ):      6.2059013      2.1321101      1.6616794
 Standard basis: 6-311+G(d,p) (5D, 7F)
 There are   194 symmetry adapted basis functions of A   symmetry.
 Integral buffers will be    262144 words long.
 Raffenetti 2 integral format.
 Two-electron integral symmetry is turned on.
   194 basis functions,   302 primitive gaussians,   200 cartesian basis functions
    26 alpha electrons       26 beta electrons
       nuclear repulsion energy       284.9830997151 Hartrees.
 NAtoms=   15 NActive=   15 NUniq=   15 SFac= 7.50D-01 NAtFMM=   80 NAOKFM=F Big=F
 Nuclear repulsion after empirical dispersion term =      284.9762436274 Hartrees.
 One-electron integrals computed using PRISM.
 NBasis=   194 RedAO= T  NBF=   194
 NBsUse=   194 1.00D-06 NBFU=   194
 Initial guess read from the read-write file.
 B after Tr=     0.000000    0.000000    0.000000
         Rot=    1.000000    0.000000    0.000000    0.000000 Ang=   0.00 deg.
 Initial guess orbital symmetries:
       Occupied  (A) (A) (A) (A) (A) (A) (A) (A) (A) (A) (A) (A)
                 (A) (A) (A) (A) (A) (A) (A) (A) (A) (A) (A) (A)
                 (A) (A)
       Virtual   (A) (A) (A) (A) (A) (A) (A) (A) (A) (A) (A) (A)
                 (A) (A) (A) (A) (A) (A) (A) (A) (A) (A) (A) (A)
                 (A) (A) (A) (A) (A) (A) (A) (A) (A) (A) (A) (A)
                 (A) (A) (A) (A) (A) (A) (A) (A) (A) (A) (A) (A)
                 (A) (A) (A) (A) (A) (A) (A) (A) (A) (A) (A) (A)
                 (A) (A) (A) (A) (A) (A) (A) (A) (A) (A) (A) (A)
                 (A) (A) (A) (A) (A) (A) (A) (A) (A) (A) (A) (A)
                 (A) (A) (A) (A) (A) (A) (A) (A) (A) (A) (A) (A)
                 (A) (A) (A) (A) (A) (A) (A) (A) (A) (A) (A) (A)
                 (A) (A) (A) (A) (A) (A) (A) (A) (A) (A) (A) (A)
                 (A) (A) (A) (A) (A) (A) (A) (A) (A) (A) (A) (A)
                 (A) (A) (A) (A) (A) (A) (A) (A) (A) (A) (A) (A)
                 (A) (A) (A) (A) (A) (A) (A) (A) (A) (A) (A) (A)
                 (A) (A) (A) (A) (A) (A) (A) (A) (A) (A) (A) (A)
 Harris functional with IExCor= 4639 diagonalized for initial guess.
 ExpMin= 2.07D-02 ExpMax= 9.34D+04 ExpMxC= 3.17D+03 IAcc=3 IRadAn=         0 AccDes= 0.00D+00
 HarFok:  IExCor= 4639 AccDes= 0.00D+00 IRadAn=         0 IDoV= 1
 ScaDFX=  1.000000  1.000000  1.000000  1.000000
 FoFCou: FMM=F IPFlag=           0 FMFlag=      100000 FMFlg1=           0
         NFxFlg=           0 DoJE=T BraDBF=F KetDBF=T FulRan=T
         Omega=  0.000000  0.000000  1.000000  0.000000  0.000000 ICntrl=     500 IOpCl=  0
         NMat0=    1 NMatS0=    1 NMatT0=    0 NMatD0=    1 NMtDS0=    0 NMtDT0=    0
         I1Cent=           4 NGrid=           0.
 Petite list used in FoFCou.
 Requested convergence on RMS density matrix=1.00D-08 within 128 cycles.
 Requested convergence on MAX density matrix=1.00D-06.
 Requested convergence on             energy=1.00D-06.
 No special actions if energy rises.
 FoFJK:  IHMeth= 1 ICntrl=     0 DoSepK=T KAlg= 1 I1Cent= 0 FoldK=F
 FoFJK:  IHMeth= 1 ICntrl=     0 DoSepK=T KAlg= 1 I1Cent= 0 FoldK=F
 FoFJK:  IHMeth= 1 ICntrl=     0 DoSepK=T KAlg= 1 I1Cent= 0 FoldK=F
 FoFJK:  IHMeth= 1 ICntrl=     0 DoSepK=T KAlg= 1 I1Cent= 0 FoldK=F
 FoFJK:  IHMeth= 1 ICntrl=     0 DoSepK=T KAlg= 1 I1Cent= 0 FoldK=F
 FoFJK:  IHMeth= 1 ICntrl=     0 DoSepK=T KAlg= 1 I1Cent= 0 FoldK=F
 FoFJK:  IHMeth= 1 ICntrl=     0 DoSepK=T KAlg= 1 I1Cent= 0 FoldK=F
 FoFJK:  IHMeth= 1 ICntrl=     0 DoSepK=T KAlg= 1 I1Cent= 0 FoldK=F
 FoFJK:  IHMeth= 1 ICntrl=     0 DoSepK=T KAlg= 1 I1Cent= 0 FoldK=F
 FoFJK:  IHMeth= 1 ICntrl=     0 DoSepK=T KAlg= 1 I1Cent= 0 FoldK=F
 SCF Done:  E(RwB97XD) =  -586.676253897     A.U. after   10 cycles
             Convg  =    0.4555D-08             -V/T =  2.0023
 Calling FoFJK, ICntrl=      2127 FMM=F ISym2X=0 I1Cent= 0 IOpClX= 0 NMat=1 NMatS=1 NMatT=0.
 FoFJK:  IHMeth= 1 ICntrl=  2127 DoSepK=T KAlg= 1 I1Cent= 0 FoldK=F
 ***** Axes restored to original set *****
 -------------------------------------------------------------------
 Center     Atomic                   Forces (Hartrees/Bohr)
 Number     Number              X              Y              Z
 -------------------------------------------------------------------
      1        6          -0.000661413    0.000028711    0.000126137
      2        6           0.000589938    0.000038365   -0.000199620
      3        1          -0.000061879    0.000111440    0.000001277
      4        1          -0.000090240   -0.000064186    0.000010512
      5        1           0.000039784   -0.000027883   -0.000027467
      6        7           0.000911381   -0.000279429    0.000058345
      7        1          -0.000326383    0.000162235   -0.000345762
      8        1           0.000660894   -0.000081346    0.000134773
      9        1          -0.000329846    0.000162297    0.000346577
     10        1           0.000659061   -0.000075754   -0.000133588
     11        1           0.000248519   -0.000127793    0.000598254
     12        1           0.000097201   -0.000166842   -0.000621725
     13       16           0.000117201   -0.000085028    0.000247625
     14        6          -0.000104710    0.000170947   -0.000225612
     15        4          -0.001749509    0.000234267    0.000030274
 -------------------------------------------------------------------
 Cartesian Forces:  Max     0.001749509 RMS     0.000404539

 GradGradGradGradGradGradGradGradGradGradGradGradGradGradGradGradGradGrad
 Berny optimization.
 Using GEDIIS/GDIIS optimizer.
 Internal  Forces:  Max     0.000747795 RMS     0.000174225
 Search for a local minimum.
 Step number   3 out of a maximum of   87
 All quantities printed in internal units (Hartrees-Bohrs-Radians)
 Mixed Optimization -- En-DIIS/RFO-DIIS
 Swaping is turned off.
 Update second derivatives using D2CorX and points    1    2    3
 DE= -7.28D-05 DEPred=-6.29D-05 R= 1.16D+00
 SS=  1.41D+00  RLast= 6.10D-02 DXNew= 5.0454D-01 1.8287D-01
 Trust test= 1.16D+00 RLast= 6.10D-02 DXMaxT set to 3.00D-01
     Eigenvalues ---    0.01944   0.02060   0.02288   0.02326   0.02451
     Eigenvalues ---    0.02625   0.02746   0.02897   0.07406   0.07479
     Eigenvalues ---    0.07639   0.07696   0.07734   0.07781   0.07966
     Eigenvalues ---    0.10163   0.10710   0.15768   0.15966   0.16000
     Eigenvalues ---    0.16000   0.16000   0.16013   0.16100   0.22477
     Eigenvalues ---    0.23582   0.24993   0.26095   0.30643   0.32578
     Eigenvalues ---    0.32617   0.35051   0.35764   0.35845   0.36982
     Eigenvalues ---    0.38333   0.44487   0.52513   0.615141000.00000
     Eigenvalues --- 1000.000001000.000001000.000001000.000001000.00000
     Eigenvalues --- 1000.000001000.000001000.000001000.000001000.00000
     Eigenvalues --- 1000.000001000.000001000.000001000.000001000.00000
     Eigenvalues --- 1000.000001000.000001000.000001000.000001000.00000
     Eigenvalues --- 1000.000001000.000001000.000001000.000001000.00000
     Eigenvalues --- 1000.000001000.000001000.000001000.000001000.00000
     Eigenvalues --- 1000.000001000.000001000.000001000.000001000.00000
     Eigenvalues --- 1000.000001000.00000
 En-DIIS/RFO-DIIS IScMMF=        0 using points:     3    2    1
 RFO step:  Lambda=-5.17531749D-06.
 DIIS coeffs:      1.25274     -0.32266      0.06992
 Iteration  1 RMS(Cart)=  0.00272170 RMS(Int)=  0.00000599
 Iteration  2 RMS(Cart)=  0.00000557 RMS(Int)=  0.00000233
 Iteration  3 RMS(Cart)=  0.00000000 RMS(Int)=  0.00000233
 Variable       Old X    -DE/DX   Delta X   Delta X   Delta X     New X
                                  (DIIS)     (GDIIS)  (Total)
    R1        2.55079  -0.00059   0.00013  -0.00049  -0.00036   2.55043
    R2        2.04538  -0.00010  -0.00006  -0.00008  -0.00013   2.04525
    R3        2.64084   0.00010  -0.00052   0.00035  -0.00017   2.64067
    R4        2.04383  -0.00005  -0.00002  -0.00004  -0.00006   2.04377
    R5        3.24980  -0.00003  -0.00041   0.00002  -0.00039   3.24941
    R6        2.04657  -0.00013  -0.00007  -0.00015  -0.00022   2.04635
    R7        2.54052  -0.00011  -0.00001   0.00006   0.00005   2.54057
    R8        3.01364  -0.00075   0.00019  -0.00236  -0.00216   3.01148
    R9        1.45854   0.00046  -0.00016   0.00109   0.00092   1.45946
   R10        3.20962   0.00019   0.00492   0.00310   0.00802   3.21764
   R11        3.25749   0.00020   0.00471   0.00338   0.00809   3.26558
   R12        1.45867   0.00047  -0.00016   0.00110   0.00093   1.45960
   R13        3.21073   0.00019   0.00498   0.00313   0.00811   3.21884
   R14        3.25870   0.00020   0.00473   0.00343   0.00816   3.26685
   R15        1.45636   0.00048  -0.00015   0.00127   0.00112   1.45748
   R16        3.22722   0.00023   0.00531   0.00359   0.00889   3.23611
   R17        3.22398   0.00023   0.00515   0.00350   0.00865   3.23263
   R18        3.16259  -0.00019   0.00013  -0.00021  -0.00008   3.16252
    A1        2.19720  -0.00008  -0.00006  -0.00029  -0.00035   2.19685
    A2        1.97655   0.00008  -0.00014   0.00027   0.00013   1.97667
    A3        2.10944   0.00000   0.00019   0.00002   0.00022   2.10966
    A4        2.23188  -0.00005  -0.00008  -0.00012  -0.00020   2.23168
    A5        1.93540   0.00008   0.00001   0.00018   0.00018   1.93558
    A6        2.11590  -0.00002   0.00006  -0.00005   0.00002   2.11592
    A7        1.94087  -0.00015   0.00039  -0.00070  -0.00032   1.94055
    A8        2.14902   0.00011  -0.00009   0.00048   0.00039   2.14941
    A9        2.19329   0.00005  -0.00030   0.00023  -0.00007   2.19322
   A10        1.58494  -0.00008   0.00014  -0.00032  -0.00018   1.58475
   A11        2.16265   0.00000   0.00008  -0.00014  -0.00006   2.16259
   A12        2.13352  -0.00007   0.00032  -0.00045  -0.00013   2.13339
   A13        1.98701   0.00008  -0.00040   0.00060   0.00019   1.98720
   A14        1.80351   0.00001   0.00043   0.00056   0.00099   1.80450
   A15        2.24768   0.00015  -0.00017   0.00066   0.00049   2.24818
   A16        1.80467   0.00002   0.00048   0.00065   0.00113   1.80580
   A17        2.24935   0.00016  -0.00013   0.00073   0.00060   2.24995
   A18        2.04896   0.00012   0.00025   0.00087   0.00112   2.05008
   A19        2.03070  -0.00003  -0.00013  -0.00016  -0.00029   2.03041
   A20        2.08643  -0.00006  -0.00082  -0.00113  -0.00195   2.08448
   A21        1.79689  -0.00008  -0.00004  -0.00053  -0.00058   1.79631
   A22        2.06173  -0.00001  -0.00059  -0.00064  -0.00123   2.06050
   A23        1.65963  -0.00003   0.00041   0.00011   0.00052   1.66015
   A24        1.79466  -0.00008  -0.00005  -0.00051  -0.00056   1.79410
   A25        1.41251  -0.00016   0.00084  -0.00013   0.00070   1.41322
   A26        1.80106  -0.00021  -0.00058  -0.00164  -0.00221   1.79884
   A27        1.51980  -0.00013   0.00008  -0.00073  -0.00065   1.51915
   A28        1.65527  -0.00008   0.00030  -0.00025   0.00005   1.65532
   A29        2.07288   0.00007  -0.00037  -0.00009  -0.00046   2.07242
   A30        1.50579  -0.00024  -0.00015  -0.00140  -0.00155   1.50424
   A31        1.81461  -0.00008  -0.00026  -0.00078  -0.00104   1.81357
    D1        0.00066  -0.00002   0.00015  -0.00135  -0.00120  -0.00054
    D2        3.14061   0.00007  -0.00041   0.00386   0.00345  -3.13912
    D3        3.14111   0.00002  -0.00025   0.00198   0.00172  -3.14035
    D4       -0.00213   0.00011  -0.00082   0.00719   0.00637   0.00425
    D5        0.00032  -0.00002   0.00019  -0.00138  -0.00119  -0.00088
    D6       -3.14024  -0.00003   0.00018  -0.00197  -0.00179   3.14115
    D7        3.14083   0.00002  -0.00020   0.00176   0.00156  -3.14079
    D8        0.00027   0.00001  -0.00021   0.00117   0.00096   0.00124
    D9        0.00259  -0.00014   0.00094  -0.00853  -0.00758  -0.00499
   D10       -3.14052  -0.00005   0.00043  -0.00371  -0.00329   3.13938
   D11       -3.14154   0.00001  -0.00004   0.00053   0.00048  -3.14105
   D12        0.00173  -0.00009   0.00056  -0.00535  -0.00479  -0.00306
   D13       -0.00101   0.00002  -0.00003   0.00113   0.00110   0.00009
   D14       -3.14093  -0.00008   0.00057  -0.00474  -0.00417   3.13808
   D15       -1.08007   0.00003   0.00024   0.00072   0.00096  -1.07912
   D16       -0.96997  -0.00004  -0.00058  -0.00040  -0.00099  -0.97096
   D17        1.10625  -0.00002  -0.00026   0.00000  -0.00026   1.10599
   D18        0.99941   0.00004   0.00054   0.00105   0.00159   1.00100
   D19        2.90005  -0.00006   0.00046   0.00040   0.00087   2.90091
   D20       -2.87181   0.00008  -0.00044   0.00033  -0.00011  -2.87192
   D21        2.06271   0.00002   0.00023   0.00004   0.00027   2.06298
   D22        2.17281  -0.00005  -0.00060  -0.00108  -0.00168   2.17114
   D23       -2.03415  -0.00003  -0.00028  -0.00067  -0.00095  -2.03510
   D24       -2.14099   0.00003   0.00052   0.00037   0.00090  -2.14009
   D25       -0.24035  -0.00007   0.00045  -0.00027   0.00018  -0.24018
   D26        0.27097   0.00007  -0.00046  -0.00034  -0.00080   0.27018
   D27        3.14074   0.00003  -0.00028   0.00222   0.00195  -3.14049
   D28       -0.00249   0.00013  -0.00086   0.00799   0.00712   0.00463
         Item               Value     Threshold  Converged?
 Maximum Force            0.000748     0.000450     NO 
 RMS     Force            0.000174     0.000300     YES
 Maximum Displacement     0.011055     0.001800     NO 
 RMS     Displacement     0.002722     0.001200     NO 
 Predicted change in Energy=-9.249152D-06
 GradGradGradGradGradGradGradGradGradGradGradGradGradGradGradGradGradGrad

                          Input orientation:                          
 ---------------------------------------------------------------------
 Center     Atomic      Atomic             Coordinates (Angstroms)
 Number     Number       Type             X           Y           Z
 ---------------------------------------------------------------------
      1          6           0        0.157815    1.237880    0.000178
      2          6           0       -1.187657    1.132050   -0.001167
      3          1           0        0.206232   -2.058276   -0.000566
      4          1           0        0.721267    2.161941   -0.000126
      5          1           0       -1.916413    1.931170   -0.002283
      6          7           0        0.808511    0.001242   -0.000180
      7          1           0        2.862003    0.593560   -1.458905
      8          1           0        3.545453    0.506771   -1.109855
      9          1           0        2.858959    0.552345    1.482039
     10          1           0        3.543772    0.470877    1.134219
     11          1           0        3.042177   -1.692415    0.362264
     12          1           0        3.011693   -1.691032   -0.408399
     13         16           0       -1.673251   -0.517467    0.003905
     14          6           0       -0.074600   -1.012444   -0.000705
     15          4           0        2.395044   -0.148718    0.000606
 ---------------------------------------------------------------------
                    Distance matrix (angstroms):
                    1          2          3          4          5
     1  C    0.000000
     2  C    1.349629   0.000000
     3  H    3.296512   3.481538   0.000000
[...]
 ! A12   A(3,14,13)            122.2127         -DE/DX =    0.0                 !
 ! A13   A(6,14,13)            113.8816         -DE/DX =    0.0                 !
 ! A14   A(6,15,7)             103.6912         -DE/DX =    0.0                 !
 ! A15   A(6,15,8)             129.1102         -DE/DX =    0.0                 !
 ! A16   A(6,15,9)             103.8739         -DE/DX =    0.0                 !
 ! A17   A(6,15,10)            129.4201         -DE/DX =    0.0                 !
 ! A18   A(6,15,11)            119.1569         -DE/DX =    0.0                 !
 ! A19   A(6,15,12)            115.2248         -DE/DX =    0.0                 !
 ! A20   A(7,15,9)             118.8949         -DE/DX =    0.0                 !
 ! A21   A(7,15,10)            102.7186         -DE/DX =    0.0                 !
 ! A22   A(7,15,11)            116.6808         -DE/DX =    0.0                 !
 ! A23   A(7,15,12)             95.2817         -DE/DX =    0.0                 !
 ! A24   A(8,15,9)             102.1891         -DE/DX =    0.0                 !
 ! A25   A(8,15,10)             80.6535         -DE/DX =    0.0                 !
 ! A26   A(8,15,11)            101.2502         -DE/DX =    0.0                 !
 ! A27   A(8,15,12)             87.5868         -DE/DX =    0.0                 !
 ! A28   A(9,15,11)             94.5583         -DE/DX =    0.0                 !
 ! A29   A(9,15,12)            119.3412         -DE/DX =    0.0                 !
 ! A30   A(10,15,11)            84.6801         -DE/DX =    0.0                 !
 ! A31   A(10,15,12)           104.2785         -DE/DX =    0.0                 !
 ! D1    D(4,1,2,5)              0.0549         -DE/DX =    0.0                 !
 ! D2    D(4,1,2,13)          -179.9621         -DE/DX =    0.0                 !
 ! D3    D(6,1,2,5)           -179.9786         -DE/DX =    0.0                 !
 ! D4    D(6,1,2,13)             0.0044         -DE/DX =    0.0                 !
 ! D5    D(2,1,6,14)            -0.0191         -DE/DX =    0.0                 !
 ! D6    D(2,1,6,15)          -179.7649         -DE/DX =    0.0                 !
 ! D7    D(4,1,6,14)           179.9493         -DE/DX =    0.0                 !
 ! D8    D(4,1,6,15)             0.2035         -DE/DX =    0.0                 !
 ! D9    D(1,2,13,14)            0.0085         -DE/DX =    0.0                 !
 ! D10   D(5,2,13,14)          179.9927         -DE/DX =    0.0                 !
 ! D11   D(1,6,14,3)          -179.9291         -DE/DX =    0.0                 !
 ! D12   D(1,6,14,13)            0.0258         -DE/DX =    0.0                 !
 ! D13   D(15,6,14,3)           -0.1909         -DE/DX =    0.0                 !
 ! D14   D(15,6,14,13)         179.764          -DE/DX =    0.0                 !
 ! D15   D(1,6,15,7)           -59.5346         -DE/DX =    0.0                 !
 ! D16   D(1,6,15,8)           -53.3694         -DE/DX =    0.0                 !
 ! D17   D(1,6,15,9)            65.3867         -DE/DX =    0.0                 !
 ! D18   D(1,6,15,10)           60.0414         -DE/DX =    0.0                 !
 ! D19   D(1,6,15,11)          168.7742         -DE/DX =    0.0                 !
 ! D20   D(1,6,15,12)         -162.2139         -DE/DX =    0.0                 !
 ! D21   D(14,6,15,7)          120.7572         -DE/DX =    0.0                 !
 ! D22   D(14,6,15,8)          126.9224         -DE/DX =    0.0                 !
 ! D23   D(14,6,15,9)         -114.3215         -DE/DX =    0.0                 !
 ! D24   D(14,6,15,10)        -119.6668         -DE/DX =    0.0                 !
 ! D25   D(14,6,15,11)         -10.934          -DE/DX =    0.0                 !
 ! D26   D(14,6,15,12)          18.0779         -DE/DX =    0.0                 !
 ! D27   D(2,13,14,3)          179.9358         -DE/DX =    0.0                 !
 ! D28   D(2,13,14,6)           -0.02           -DE/DX =    0.0                 !
 --------------------------------------------------------------------------------
 GradGradGradGradGradGradGradGradGradGradGradGradGradGradGradGradGradGrad

 1|1|UNPC-LAPTOP-5JS4LN2H|Freq|RwB97XD|6-311+G(d,p)|C3H9Be1N1S1(2+)|SOU
 MYO|01-Oct-2021|0||#N Geom=AllCheck Guess=TCheck SCRF=Check GenChk RwB
 97XD/6-311+G(d,p) Freq||Thiazole-Be(2+)@3H2||2,1|C,0.1539277401,1.2384
 201485,-0.020485177|C,-1.190949706,1.1320310249,-0.0125788836|H,0.2037
 863505,-2.0572010913,0.0466968286|H,0.7169090231,2.1624577394,-0.04083
 85918|H,-1.9201228894,1.9306197437,-0.0257041525|N,0.8056875548,0.0019
 375064,0.0013946104|H,2.8700887146,0.623885456,-1.4384505407|H,3.55090
 1385,0.5266899592,-1.0866563381|H,2.863580881,0.5271868515,1.496174248
 4|H,3.5484255384,0.4341688391,1.1504886246|H,3.0840999124,-1.683390802
 2,0.3218583611|H,2.9772665392,-1.692017561,-0.4423169879|S,-1.67581711
 68,-0.5177060754,0.0225610861|C,-0.0772610514,-1.0116598611,0.02584238
 37|Be,2.3904821245,-0.1479378776,0.0030405287||Version=IA32W-G09RevA.0
 2|State=1-A|HF=-586.6762819|RMSD=3.715e-009|RMSF=5.089e-006|ZeroPoint=
 0.1057784|Thermal=0.114946|Dipole=5.6186767,-0.3264863,-0.0043347|Dipo
 leDeriv=0.1173532,0.1348818,-0.0028163,-0.2383416,0.0466832,-0.001245,
 0.0059763,-0.0028744,-0.0365151,-0.0918807,-0.1513595,0.0024185,0.1092
 463,0.0327981,-0.0036406,-0.0030473,-0.0023477,-0.117081,0.0860183,0.0
 462627,-0.0002203,-0.0032733,0.2003113,-0.0005486,0.000094,-0.0011206,
 0.1760773,0.0581614,-0.0344179,0.001242,0.0043622,0.1613312,0.0007127,
 0.0002244,0.0012251,0.1882882,0.2018299,-0.0887352,0.0019083,-0.063975
 3,0.1753164,0.0007381,0.0012041,0.0009953,0.201971,-1.5609654,-0.07273
 04,0.002792,-0.2134772,-0.3123723,0.0029087,0.0119448,0.0013488,-0.256
 4646,-0.0474056,-0.1038936,0.1869018,-0.0526278,0.0736006,-0.0210835,0
 .0437247,-0.0398671,0.1778061,0.2293169,0.0702498,-0.1064161,-0.004891
 5,0.0498317,0.0882157,0.0403862,0.0970025,-0.1000456,-0.0500213,-0.093
 9543,-0.1995131,-0.0467919,0.0754204,0.0194112,-0.0508587,0.035591,0.1
 778876,0.2274206,0.0632807,0.1157119,-0.0051056,0.0565355,-0.0825564,-
 0.0411289,-0.0882013,-0.1116242,0.1008767,-0.0120896,0.0631391,0.02045
 34,0.0017862,-0.1086314,0.1404659,-0.2338799,0.1084432,0.0651305,0.047
 1684,-0.053125,0.04716,0.0078478,0.1051282,-0.1309849,0.2291964,0.1360
 282,0.1340356,0.1652704,-0.0025623,0.1626896,0.3953513,-0.0000995,-0.0
 026068,-0.0007678,0.3930958,0.8516721,0.0492441,-0.0028848,0.3337968,-
 0.0765358,0.0002394,-0.0095767,0.0008007,-0.034674,1.6784579,-0.019177
 4,-0.0065756,-0.0492239,1.1120945,0.000451,-0.0058171,0.0028988,1.0968
 07|Polar=87.2118252,-0.0824201,67.2628714,0.138499,-0.4756149,44.99778
 03|PG=C01 [X(C3H9Be1N1S1)]|NImag=0||0.77701344,0.14388127,0.69392842,-
 0.00560563,-0.01187348,0.12665733,-0.44949183,-0.04733260,0.00260276,0
 .79065897,-0.01605606,-0.10775843,0.00107154,-0.14797553,0.55425595,0.
 00195486,0.00121478,-0.05771466,0.00010632,-0.00853295,0.09909069,-0.0
 0423394,-0.00287253,0.00009594,-0.00688997,0.00212101,-0.00000839,0.07
 921505,-0.00461855,0.00079936,0.00010190,0.00030669,0.00207149,0.00001
 323,-0.08004348,0.34527067,0.00012600,0.00009752,0.00475626,0.00004686
 ,-0.00000437,0.00248364,0.00138934,-0.00645329,0.02110630,-0.14616694,
 -0.13976711,0.00322978,-0.00619572,-0.02326335,0.00049836,0.00097770,0
 .00045872,-0.00000915,0.14413517,-0.13359888,-0.26949679,0.00523823,0.
 00254223,0.00486024,-0.00001494,-0.00074439,-0.00034872,0.00004000,0.1
 3841507,0.28309392,0.00309213,0.00522595,-0.03147850,-0.00000049,0.000
 10944,0.00547942,0.00001526,0.00003965,0.00157525,-0.00326018,-0.00567
 836,0.02302640,-0.00606936,0.01994499,-0.00037816,-0.19740517,0.156289
 05,-0.00246894,0.00130467,0.00021570,-0.00000398,0.00047985,-0.0002393
 2,-0.00001170,0.19774133,-0.00573562,0.00964744,-0.00016027,0.15914142
 ,-0.22168931,0.00321872,0.00102429,0.00019636,0.00002648,0.00035359,0.
 00015477,-0.00007705,-0.16125061,0.22498187,0.00015773,-0.00027029,0.0
 0052594,-0.00254013,0.00323168,-0.02966484,-0.00001514,0.00003294,0.00
 182591,-0.00002250,-0.00006917,-0.00356326,0.00254099,-0.00340826,0.02
 337865,-0.13825203,0.05158961,-0.00073211,-0.06030455,0.01465799,-0.00
 000515,0.01072457,0.00714424,-0.00017999,0.01368511,-0.01212650,0.0001
 8573,-0.00450785,-0.00407513,0.00014020,0.64488221,0.05747411,-0.21673
 119,0.00289888,0.06896268,-0.00662721,0.00003095,-0.02616966,-0.012134
 46,0.00025926,0.02197118,-0.01588818,0.00013802,0.00095542,0.00293234,
 0.00008383,0.03979595,0.54418142,-0.00080460,0.00287660,-0.06103734,-0
 .00109763,0.00025302,0.00826237,0.00049099,0.00013694,-0.00361968,-0.0
 0048753,0.00028197,-0.00451109,0.00002944,0.00011314,0.00748813,-0.002
 33369,-0.00901850,0.11190753,0.00034485,-0.00108765,-0.00029822,-0.000
 54448,-0.00011236,0.00008539,0.00008096,0.00006092,0.00007657,0.000046
 05,0.00007730,0.00028298,-0.00000458,-0.00002788,0.00001995,-0.0072965
 5,-0.00233442,0.00289518,0.24832643,0.00016304,0.00056371,-0.00008274,
 0.00011725,-0.00008956,0.00003736,0.00002365,0.00000502,0.00001020,0.0
 0007308,-0.00012598,-0.00029934,0.00002988,0.00001239,0.00003070,0.000
 01994,0.00027900,-0.00022675,-0.03145550,0.01470909,0.00040431,-0.0003
 4322,0.00006128,-0.00024521,-0.00006150,-0.00004415,0.00001225,0.00000
 337,0.00007049,0.00005115,-0.00006230,0.00007398,0.00000554,-0.0000269
 5,0.00000829,-0.00104999,-0.00088512,0.00060246,0.11903837,-0.02843661
 ,0.08773931,0.00022229,0.00001080,0.00009793,0.00000290,-0.00017777,0.
 00003063,-0.00005151,-0.00005178,0.00002859,-0.00005618,0.00012954,-0.
 00002325,-0.00001725,0.00004519,-0.00002557,0.00112866,-0.00108829,0.0
 0087699,-0.24434302,0.03123392,-0.11880484,0.25774749,0.00015699,-0.00
 045004,0.00001606,-0.00036356,-0.00006314,-0.00008957,0.00002442,0.000
 04220,0.00006712,0.00000210,0.00013346,0.00016773,-0.00000127,-0.00001
 113,-0.00000010,-0.00152103,0.00046836,0.00044162,0.03438420,-0.006978
 78,0.02082118,-0.02825569,0.01344888,-0.00035658,0.00071158,0.00031776
 ,0.00030679,0.00004791,-0.00008258,-0.00004731,-0.00003918,-0.00004468
 ,0.00002765,0.00003299,-0.00012920,-0.00000052,0.00003354,-0.00003009,
 0.00306390,0.00093121,-0.00014821,-0.12546596,0.02000794,-0.06961894,0
 .11607903,-0.02485717,0.08080407,0.00051754,-0.00105040,0.00031380,-0.
 00059188,-0.00017198,-0.00005317,0.00007494,0.00005408,-0.00008920,0.0
 0007729,0.00003897,-0.00022734,0.00000177,-0.00002849,-0.00002688,-0.0
 0769167,-0.00200324,-0.00293440,0.00057360,-0.00041540,-0.00065523,-0.
 00099551,-0.00010051,-0.00071351,0.25033047,0.00015883,0.00048116,0.00
 005039,0.00010875,-0.00008979,-0.00002845,0.00001861,-0.00000096,-0.00
 002204,0.00001562,-0.00009334,0.00026126,0.00002692,0.00001095,-0.0000
 3161,0.00005646,0.00020154,0.00027049,-0.00047035,0.00037041,0.0003753
 4,0.00053866,-0.00012068,0.00075632,-0.03036632,0.01288605,-0.00034617
 ,0.00038218,0.00009308,0.00025148,0.00004618,-0.00005265,-0.00000800,0
 .00000133,0.00008036,-0.00003586,0.00004182,0.00005297,-0.00000266,0.0
 0002772,0.00000557,0.00091214,0.00076610,0.00057097,0.00064194,-0.0003
 3643,0.00001451,-0.00098345,-0.00007247,-0.00163804,-0.11707575,0.0267
 6427,0.08720941,0.00021866,-0.00001207,-0.00014610,-0.00003723,-0.0001
 8981,-0.00001094,-0.00005649,-0.00005695,-0.00002986,-0.00005117,0.000
 12959,0.00000945,-0.00001837,0.00004343,0.00003200,0.00111899,-0.00098
 810,-0.00102090,-0.00098302,0.00045222,0.00100154,0.00212028,-0.000030
 43,0.00170859,-0.24649554,0.03034217,0.11688273,0.25989750,0.00013730,
 -0.00035625,-0.00005792,-0.00036871,-0.00007618,0.00009406,0.00001716,
 0.00003997,-0.00006214,-0.00000063,0.00009254,-0.00015043,0.00000032,-
 0.00001173,0.00000446,-0.00143838,0.00060463,-0.00038373,-0.00011315,-
 0.00010610,0.00016097,0.00006008,0.00038187,0.00057598,0.03298413,-0.0
 0602634,-0.01936170,-0.02765759,0.01189616,0.00044468,-0.00074539,0.00
 032033,-0.00035718,-0.00010077,-0.00006623,0.00004427,0.00003776,-0.00
 006208,-0.00001038,-0.00002526,-0.00011720,0.00000338,-0.00003348,-0.0
 0003080,-0.00341200,-0.00082004,-0.00016497,0.00071008,-0.00062976,-0.
 00162349,-0.00168219,-0.00032415,-0.00354565,0.12356446,-0.01886301,-0
 .06768968,-0.11386804,0.02306224,0.07937165,-0.00030516,-0.00071125,0.
 00029466,-0.00016198,0.00024727,0.00001681,-0.00022605,0.00008337,-0.0
 0017891,0.00001173,-0.00000109,0.00002195,-0.00005892,-0.00004021,-0.0
 0007363,-0.00040332,0.00297419,0.00004090,-0.00056075,-0.00059199,-0.0
 0011717,0.00077017,-0.00064070,0.00060187,-0.00025897,-0.00035287,-0.0
 0026278,0.00059369,-0.00093206,-0.00032860,0.01411993,-0.00003109,0.00
 038449,-0.00008290,0.00001632,-0.00006448,0.00000689,0.00003847,0.0001
 1433,-0.00027052,-0.00003338,0.00005033,0.00000294,0.00002907,0.000029
 03,-0.00001178,0.00047294,-0.00099560,-0.00007035,-0.00059593,-0.00073
 140,-0.00049732,0.00102389,-0.00111747,0.00057770,0.00006338,-0.001085
 84,-0.00038569,0.00020372,-0.00167363,-0.00067179,-0.00923032,0.026646
 10,0.00012624,0.00136707,0.00020485,0.00041992,-0.00036179,0.00002112,
 0.00003352,-0.00026344,0.00008089,-0.00003373,0.00009574,-0.00001037,0
 .00003455,0.00009728,-0.00004317,0.00232786,-0.00279771,-0.00002241,-0
 .00017107,-0.00035947,-0.00002012,0.00024889,0.00008918,0.00001817,-0.
 00116626,-0.00231061,0.00011691,0.00151003,-0.00241489,-0.00141233,0.0
 4480128,0.00102493,0.31372240,-0.00023325,-0.00092424,-0.00019501,-0.0
 0022487,0.00021333,-0.00001873,-0.00033046,0.00008726,0.00024762,0.000
 03029,-0.00003759,-0.00002083,-0.00007177,-0.00005052,0.00007067,-0.00
 127209,0.00346472,-0.00003403,0.00005670,-0.00007177,0.00031145,0.0000
 9697,-0.00055628,0.00003249,-0.00030768,-0.00024804,0.00003757,0.00037
 052,-0.00028377,-0.00039520,-0.00695550,0.00238285,-0.04469070,0.01297
 499,0.00004127,0.00026610,0.00005397,-0.00004575,-0.00011374,0.0000105
 2,-0.00005248,0.00011466,0.00028058,-0.00002979,0.00004894,-0.00000324
 ,0.00002056,0.00002193,0.00000531,0.00036816,-0.00098252,0.00009176,-0
 .00002858,-0.00113540,0.00014231,0.00037547,-0.00165808,0.00054344,-0.
 00050775,-0.00055460,0.00039525,0.00088207,-0.00090607,-0.00049132,0.0
 0345024,-0.00725732,0.00030570,-0.00801613,0.02686636,-0.00011002,-0.0
 0133960,0.00031742,-0.00044750,0.00034265,-0.00001225,0.00001266,0.000
 24075,0.00011076,0.00003369,-0.00009427,-0.00000133,-0.00003202,-0.000
 09744,-0.00003313,-0.00238111,0.00276716,0.00003900,0.00123967,0.00222
 753,0.00047430,-0.00156491,0.00224418,-0.00126416,0.00004079,0.0003680
 1,0.00010924,-0.00011051,-0.00016167,-0.00008137,-0.04132887,-0.007877
 76,-0.30880880,0.04128750,0.00796834,0.31430939,-0.03226477,-0.0039166
 1,0.00027071,-0.06601548,-0.02923505,0.00070379,0.00085756,-0.00123649
 ,0.00002164,-0.00349233,0.00068920,0.00003405,0.01024943,0.01280765,-0
 .00031111,-0.07730358,-0.04859927,0.00138719,-0.00081913,0.00020481,-0
 .00043012,-0.00010152,-0.00017517,0.00045264,-0.00084279,0.00018430,0.
 00041630,-0.00010047,-0.00013612,-0.00050275,-0.00001127,0.00010661,0.
 00040162,-0.00012186,0.00004498,-0.00040583,0.38976152,-0.06523026,-0.
 02189256,0.00091240,-0.04361230,-0.17432212,0.00294850,0.02071886,0.00
 032783,-0.00011643,-0.00275216,0.00191799,0.00011351,-0.00982033,-0.01
 192927,0.00023511,0.01427995,-0.02103319,0.00068243,0.00040957,-0.0000
 9074,0.00004349,-0.00005301,0.00034459,-0.00023586,0.00045024,-0.00007
 589,-0.00006144,-0.00000702,0.00034749,0.00028780,-0.00003699,0.000069
 86,-0.00012094,-0.00002755,0.00011525,0.00016211,0.02074158,0.29327159
 ,0.00147731,0.00065359,0.00911066,0.00099785,0.00290167,-0.03549764,-0
 .00043884,-0.00000432,-0.00040573,0.00009626,0.00007804,0.00611673,0.0
 0014683,0.00013909,-0.00248128,0.00012024,0.00093830,0.01684905,-0.000
 04243,-0.00001320,-0.00003477,-0.00016998,0.00005317,0.00002087,0.0000
 2282,0.00002491,-0.00004165,0.00017804,-0.00007780,0.00000725,0.000045
 95,0.00001384,0.00006786,-0.00003237,-0.00004204,0.00009365,-0.0018554
 4,-0.00504535,0.04629481,0.01068623,-0.02915114,0.00059361,-0.00719435
 ,0.04272212,-0.00081094,-0.08214797,0.07879121,-0.00143201,-0.00425059
 ,0.00429027,-0.00005580,-0.00141443,-0.00296048,0.00007398,-0.21350624
 ,-0.12966024,0.00327503,0.00133481,-0.00029497,0.00037884,-0.00035582,
 0.00077442,-0.00094319,0.00147774,-0.00028755,-0.00039116,-0.00030738,
 0.00074254,0.00108057,0.00004905,-0.00015569,-0.00106451,0.00008563,-0
 .00005256,0.00110817,-0.22486412,0.06979807,-0.00064492,0.54577571,0.0
 1051362,-0.09160110,0.00199781,0.00565443,-0.04601043,0.00105021,0.087
 65102,-0.33538182,0.00612270,0.00392483,-0.00187733,0.00007229,-0.0063
 5504,-0.00445188,0.00015387,-0.12442904,-0.25048870,0.00444209,0.00142
 881,-0.00042480,0.00071355,0.00014823,0.00037687,-0.00090270,0.0014232
 5,-0.00034171,-0.00068194,0.00011829,0.00032804,0.00094019,0.00025718,
 -0.00023962,-0.00083241,0.00056127,-0.00008340,0.00080325,0.05233660,-
 0.06493980,0.00022659,-0.02412009,0.79194061,-0.00018698,0.00212910,0.
 00950324,-0.00005305,0.00089016,0.00740525,-0.00159223,0.00611136,-0.0
 2758467,-0.00004612,0.00008006,0.00275227,0.00014038,0.00014169,0.0018
 7991,0.00315887,0.00451127,-0.05865879,0.00031612,-0.00003224,0.000209
 07,0.00048215,-0.00007069,-0.00024389,-0.00036631,0.00001710,0.0002560
 0,-0.00047270,0.00010792,-0.00027815,-0.00004126,0.00007211,-0.0000726
 2,0.00001700,-0.00001634,-0.00016384,-0.00031735,0.00014912,-0.0429577
 1,-0.00131933,-0.01399104,0.10858318,-0.01198572,0.01139894,-0.0001439
 5,0.00439563,0.00093113,-0.00001991,0.00070095,-0.00119496,-0.00001354
 ,0.00076973,0.00043559,-0.00004195,-0.00020934,0.00075336,-0.00002057,
 -0.16100167,0.01524498,-0.00028294,0.00378812,0.00051184,0.00009910,-0
 .01616794,-0.00369749,0.00525412,0.00413070,0.00027482,-0.00003633,-0.
 01626996,-0.00301112,-0.00529108,-0.00660265,0.00570914,-0.00277765,-0
 .00409762,0.00355031,0.00265829,0.00506879,-0.00485865,0.00009870,-0.0
 2536826,-0.00911336,0.00028083,0.22284926,0.01274403,0.00221567,-0.000
 08386,0.00284868,-0.00428327,0.00004070,-0.00175495,-0.00111594,0.0000
 2492,0.00063222,-0.00252185,0.00007764,0.00015467,0.00010623,0.0000133
 0,0.01520484,-0.02378624,0.00010928,-0.00013500,-0.00625685,0.00805280
 ,-0.00393925,-0.00479692,0.00181630,-0.00036996,-0.00556096,-0.0075252
 0,-0.00322950,-0.00453438,-0.00162300,0.00552523,-0.01412876,0.0064813
 6,0.00350645,-0.01474208,-0.00755325,-0.00381702,-0.00211104,0.0001535
 1,-0.01043592,0.00319507,-0.00009959,-0.01693453,0.07832131,-0.0003732
 6,-0.00008639,-0.00163765,0.00000921,0.00016713,0.00039250,0.00001567,
 0.00004099,-0.00037303,-0.00003144,0.00005545,0.00073393,-0.00000311,0
 .00000579,0.00073414,0.00018511,0.00019639,-0.01755702,0.00067144,0.00
 810280,-0.01791222,0.00540999,0.00151391,-0.00441542,-0.00063381,-0.00
 763237,-0.01908699,-0.00566333,-0.00133533,-0.00462728,-0.00349221,0.0
 0816969,-0.00384239,0.00338255,-0.00924425,-0.00508888,0.00013465,0.00
 004556,0.00285790,0.00015165,-0.00011445,-0.00062924,0.00023689,0.0001
 1508,0.07045165||-0.00000764,0.00000588,0.00000026,0.00001236,0.000014
 37,-0.00000194,-0.00000281,-0.00000006,-0.00000146,0.00000468,-0.00000
 022,0.00000122,-0.00000152,0.00000020,-0.00000064,-0.00000317,0.000007
 71,0.00000135,0.00000371,-0.00000537,0.00000188,0.00000040,-0.00000622
 ,-0.00000669,-0.00000215,-0.00000635,-0.00000075,-0.00000248,-0.000000
 53,0.00000498,0.00000163,-0.00000303,-0.00000764,0.00000390,0.00000090
 ,-0.00000149,-0.00000571,-0.00000411,-0.00000127,0.00000397,0.00000243
 ,-0.00000102,-0.00000518,-0.00000559,0.00001322|||@


 ROSE IS A RED
 TY COBB IS BLUE
 'CAUSE PETE JUST HIT
 NO. 4592.
 Job cpu time:  0 days  0 hours 36 minutes 40.0 seconds.
 File lengths (MBytes):  RWF=     61 Int=      0 D2E=      0 Chk=      4 Scr=      1
 Normal termination of Gaussian 09 at Fri Oct 01 10:04:29 2021.
