 Entering Link 1 = C:\G09W\l1.exe PID=        88.
  
 Copyright (c) 1988,1990,1992,1993,1995,1998,2003,2009, Gaussian, Inc.
                  All Rights Reserved.
  
 This is part of the Gaussian(R) 09 program.  It is based on
 the Gaussian(R) 03 system (copyright 2003, Gaussian, Inc.),
 the Gaussian(R) 98 system (copyright 1998, Gaussian, Inc.),
 the Gaussian(R) 94 system (copyright 1995, Gaussian, Inc.),
 the Gaussian 92(TM) system (copyright 1992, Gaussian, Inc.),
 the Gaussian 90(TM) system (copyright 1990, Gaussian, Inc.),
 the Gaussian 88(TM) system (copyright 1988, Gaussian, Inc.),
 the Gaussian 86(TM) system (copyright 1986, Carnegie Mellon
 University), and the Gaussian 82(TM) system (copyright 1983,
 Carnegie Mellon University). Gaussian is a federally registered
 trademark of Gaussian, Inc.
  
 This software contains proprietary and confidential information,
 including trade secrets, belonging to Gaussian, Inc.
  
 This software is provided under written license and may be
 used, copied, transmitted, or stored only in accord with that
 written license.
  
 The following legend is applicable only to US Government
 contracts under FAR:
  
                    RESTRICTED RIGHTS LEGEND
  
 Use, reproduction and disclosure by the US Government is
 subject to restrictions as set forth in subparagraphs (a)
 and (c) of the Commercial Computer Software - Restricted
 Rights clause in FAR 52.227-19.
  
 Gaussian, Inc.
 340 Quinnipiac St., Bldg. 40, Wallingford CT 06492
  
  
 ---------------------------------------------------------------
 Warning -- This program may not be used in any manner that
 competes with the business of Gaussian, Inc. or will provide
 assistance to any competitor of Gaussian, Inc.  The licensee
 of this program is prohibited from giving any competitor of
 Gaussian, Inc. access to this program.  By using this program,
 the user acknowledges that Gaussian, Inc. is engaged in the
 business of creating and licensing software in the field of
 computational chemistry and represents and warrants to the
 licensee that it is not a competitor of Gaussian, Inc. and that
 it will not use this program in any manner prohibited above.
 ---------------------------------------------------------------
  

 Cite this work as:
 Gaussian 09, Revision A.02,
 M. J. Frisch, G. W. Trucks, H. B. Schlegel, G. E. Scuseria, 
 M. A. Robb, J. R. Cheeseman, G. Scalmani, V. Barone, B. Mennucci, 
 G. A. Petersson, H. Nakatsuji, M. Caricato, X. Li, H. P. Hratchian, 
 A. F. Izmaylov, J. Bloino, G. Zheng, J. L. Sonnenberg, M. Hada, 
 M. Ehara, K. Toyota, R. Fukuda, J. Hasegawa, M. Ishida, T. Nakajima, 
 Y. Honda, O. Kitao, H. Nakai, T. Vreven, J. A. Montgomery, Jr., 
 J. E. Peralta, F. Ogliaro, M. Bearpark, J. J. Heyd, E. Brothers, 
 K. N. Kudin, V. N. Staroverov, R. Kobayashi, J. Normand, 
 K. Raghavachari, A. Rendell, J. C. Burant, S. S. Iyengar, J. Tomasi, 
 M. Cossi, N. Rega, J. M. Millam, M. Klene, J. E. Knox, J. B. Cross, 
 V. Bakken, C. Adamo, J. Jaramillo, R. Gomperts, R. E. Stratmann, 
 O. Yazyev, A. J. Austin, R. Cammi, C. Pomelli, J. W. Ochterski, 
 R. L. Martin, K. Morokuma, V. G. Zakrzewski, G. A. Voth, 
 P. Salvador, J. J. Dannenberg, S. Dapprich, A. D. Daniels, 
 O. Farkas, J. B. Foresman, J. V. Ortiz, J. Cioslowski, 
 and D. J. Fox, Gaussian, Inc., Wallingford CT, 2009.
 
 ******************************************
 Gaussian 09:  IA32W-G09RevA.02 11-Jun-2009
                30-Sep-2021 
 ******************************************
 %mem=98MW
 ------------------------------
 # opt freq wb97xd/6-311+g(d,p)
 ------------------------------
 1/14=-1,18=20,19=15,26=3,38=1/1,3;
 2/9=110,12=2,17=6,18=5,40=1/2;
 3/5=4,6=6,7=111,11=2,16=1,25=1,30=1,71=1,74=-58/1,2,3;
 4//1;
 5/5=2,38=5/2;
 6/7=2,8=2,9=2,10=2,28=1/1;
 7//1,2,3,16;
 1/14=-1,18=20,19=15/3(2);
 2/9=110/2;
 99//99;
 2/9=110/2;
 3/5=4,6=6,7=111,11=2,16=1,25=1,30=1,71=1,74=-58/1,2,3;
 4/5=5,16=3/1;
 5/5=2,38=5/2;
 7//1,2,3,16;
 1/14=-1,18=20,19=15/3(-5);
 2/9=110/2;
 6/7=2,8=2,9=2,10=2,19=2,28=1/1;
 99/9=1/99;
 -------------------
 Thiazole-Be(2+)@4H2
 -------------------
 Symbolic Z-matrix:
 Charge =  2 Multiplicity = 1
 C                     0.04502   1.28079   0.20437 
 C                     1.36798   1.04273   0.28228 
 H                    -0.438     2.23355   0.37329 
 H                     2.15515   1.7438    0.52247 
 N                    -0.70311   0.14706  -0.12942 
 H                    -2.53785  -1.78758   2.04003 
 H                    -3.28797  -1.8396    2.04959 
 H                    -2.46745   1.00546  -1.76446 
 H                    -3.20505   0.93049  -1.54036 
 H                    -2.84917   0.81827   1.11532 
 H                    -3.4384    0.95824   0.63303 
 H                    -2.99896  -1.32866  -0.06957 
 H                    -3.08827  -1.19429  -0.82936 
 H                    -0.27112  -1.90811  -0.55885 
 S                     1.71599  -0.60698  -0.05951 
 C                     0.09108  -0.92292  -0.2951 
 Be                   -2.28286   0.16177  -0.31561 
 

 GradGradGradGradGradGradGradGradGradGradGradGradGradGradGradGradGradGrad
 Berny optimization.
 Initialization pass.
                           ----------------------------
                           !    Initial Parameters    !
                           ! (Angstroms and Degrees)  !
 --------------------------                            --------------------------
 ! Name  Definition              Value          Derivative Info.                !
 --------------------------------------------------------------------------------
 ! R1    R(1,2)                  1.3465         estimate D2E/DX2                !
 ! R2    R(1,3)                  1.0815         estimate D2E/DX2                !
 ! R3    R(1,5)                  1.3987         estimate D2E/DX2                !
 ! R4    R(2,4)                  1.0811         estimate D2E/DX2                !
 ! R5    R(2,15)                 1.7203         estimate D2E/DX2                !
 ! R6    R(5,16)                 1.3428         estimate D2E/DX2                !
 ! R7    R(5,17)                 1.5907         estimate D2E/DX2                !
 ! R8    R(6,7)                  0.752          estimate D2E/DX2                !
 ! R9    R(6,10)                 2.7825         estimate D2E/DX2                !
 ! R10   R(6,12)                 2.2076         estimate D2E/DX2                !
 ! R11   R(7,10)                 2.8513         estimate D2E/DX2                !
 ! R12   R(7,12)                 2.199          estimate D2E/DX2                !
 ! R13   R(8,9)                  0.7745         estimate D2E/DX2                !
 ! R14   R(8,17)                 1.6867         estimate D2E/DX2                !
 ! R15   R(9,17)                 1.715          estimate D2E/DX2                !
 ! R16   R(10,11)                0.7742         estimate D2E/DX2                !
 ! R17   R(10,17)                1.6731         estimate D2E/DX2                !
 ! R18   R(11,17)                1.694          estimate D2E/DX2                !
 ! R19   R(12,13)                0.7767         estimate D2E/DX2                !
 ! R20   R(12,17)                1.6717         estimate D2E/DX2                !
 ! R21   R(13,17)                1.6588         estimate D2E/DX2                !
 ! R22   R(14,16)                1.0823         estimate D2E/DX2                !
 ! R23   R(15,16)                1.672          estimate D2E/DX2                !
 ! A1    A(2,1,3)              125.8422         estimate D2E/DX2                !
 ! A2    A(2,1,5)              113.3304         estimate D2E/DX2                !
 ! A3    A(3,1,5)              120.8273         estimate D2E/DX2                !
 ! A4    A(1,2,4)              127.8503         estimate D2E/DX2                !
 ! A5    A(1,2,15)             110.9042         estimate D2E/DX2                !
 ! A6    A(4,2,15)             121.2454         estimate D2E/DX2                !
 ! A7    A(1,5,16)             111.0368         estimate D2E/DX2                !
 ! A8    A(1,5,17)             123.477          estimate D2E/DX2                !
 ! A9    A(16,5,17)            125.4709         estimate D2E/DX2                !
 ! A10   A(10,6,12)             57.6141         estimate D2E/DX2                !
 ! A11   A(10,7,12)             56.4544         estimate D2E/DX2                !
 ! A12   A(6,10,11)            117.4833         estimate D2E/DX2                !
 ! A13   A(6,10,17)             83.0433         estimate D2E/DX2                !
 ! A14   A(7,10,11)            104.8045         estimate D2E/DX2                !
 ! A15   A(7,10,17)             88.0835         estimate D2E/DX2                !
 ! A16   A(6,12,13)            174.1139         estimate D2E/DX2                !
 ! A17   A(6,12,17)            103.68           estimate D2E/DX2                !
 ! A18   A(7,12,13)            165.415          estimate D2E/DX2                !
 ! A19   A(7,12,17)            113.9094         estimate D2E/DX2                !
 ! A20   A(2,15,16)             90.7224         estimate D2E/DX2                !
 ! A21   A(5,16,14)            123.8816         estimate D2E/DX2                !
 ! A22   A(5,16,15)            114.0061         estimate D2E/DX2                !
 ! A23   A(14,16,15)           122.1122         estimate D2E/DX2                !
 ! A24   A(5,17,8)             102.348          estimate D2E/DX2                !
 ! A25   A(5,17,9)             128.4418         estimate D2E/DX2                !
 ! A26   A(5,17,10)            103.8666         estimate D2E/DX2                !
 ! A27   A(5,17,11)            128.0412         estimate D2E/DX2                !
 ! A28   A(5,17,12)            113.5737         estimate D2E/DX2                !
 ! A29   A(5,17,13)            120.7227         estimate D2E/DX2                !
 ! A30   A(8,17,10)            120.0877         estimate D2E/DX2                !
 ! A31   A(8,17,11)             99.8572         estimate D2E/DX2                !
 ! A32   A(8,17,12)            121.7007         estimate D2E/DX2                !
 ! A33   A(8,17,13)             95.1483         estimate D2E/DX2                !
 ! A34   A(9,17,10)            104.6477         estimate D2E/DX2                !
 ! A35   A(9,17,11)             79.7683         estimate D2E/DX2                !
 ! A36   A(9,17,12)            105.9248         estimate D2E/DX2                !
 ! A37   A(9,17,13)             83.3482         estimate D2E/DX2                !
 ! A38   A(10,17,12)            94.5291         estimate D2E/DX2                !
 ! A39   A(10,17,13)           114.9179         estimate D2E/DX2                !
 ! A40   A(11,17,12)            92.5539         estimate D2E/DX2                !
 ! A41   A(11,17,13)           103.0972         estimate D2E/DX2                !
 ! D1    D(3,1,2,4)              0.1134         estimate D2E/DX2                !
 ! D2    D(3,1,2,15)          -179.9823         estimate D2E/DX2                !
 ! D3    D(5,1,2,4)           -179.913          estimate D2E/DX2                !
 ! D4    D(5,1,2,15)            -0.0087         estimate D2E/DX2                !
 ! D5    D(2,1,5,16)            -0.0305         estimate D2E/DX2                !
 ! D6    D(2,1,5,17)          -178.6764         estimate D2E/DX2                !
 ! D7    D(3,1,5,16)           179.9446         estimate D2E/DX2                !
 ! D8    D(3,1,5,17)             1.2986         estimate D2E/DX2                !
 ! D9    D(1,2,15,16)            0.0345         estimate D2E/DX2                !
 ! D10   D(4,2,15,16)          179.9461         estimate D2E/DX2                !
 ! D11   D(1,5,16,14)         -179.8541         estimate D2E/DX2                !
 ! D12   D(1,5,16,15)            0.0578         estimate D2E/DX2                !
 ! D13   D(17,5,16,14)          -1.2409         estimate D2E/DX2                !
 ! D14   D(17,5,16,15)         178.671          estimate D2E/DX2                !
 ! D15   D(1,5,17,8)            71.4015         estimate D2E/DX2                !
 ! D16   D(1,5,17,9)            67.6689         estimate D2E/DX2                !
 ! D17   D(1,5,17,10)          -54.2351         estimate D2E/DX2                !
 ! D18   D(1,5,17,11)          -41.7899         estimate D2E/DX2                !
 ! D19   D(1,5,17,12)         -155.5649         estimate D2E/DX2                !
 ! D20   D(1,5,17,13)          175.1084         estimate D2E/DX2                !
 ! D21   D(16,5,17,8)         -107.0466         estimate D2E/DX2                !
 ! D22   D(16,5,17,9)         -110.7793         estimate D2E/DX2                !
 ! D23   D(16,5,17,10)         127.3167         estimate D2E/DX2                !
 ! D24   D(16,5,17,11)         139.7619         estimate D2E/DX2                !
 ! D25   D(16,5,17,12)          25.987          estimate D2E/DX2                !
 ! D26   D(16,5,17,13)          -3.3398         estimate D2E/DX2                !
 ! D27   D(12,6,10,11)          43.3624         estimate D2E/DX2                !
 ! D28   D(12,6,10,17)         -29.4568         estimate D2E/DX2                !
 ! D29   D(10,6,12,13)         112.2881         estimate D2E/DX2                !
 ! D30   D(10,6,12,17)          30.1859         estimate D2E/DX2                !
 ! D31   D(12,7,10,11)          60.1451         estimate D2E/DX2                !
 ! D32   D(12,7,10,17)         -17.134          estimate D2E/DX2                !
 ! D33   D(10,7,12,13)        -109.6887         estimate D2E/DX2                !
 ! D34   D(10,7,12,17)          18.8047         estimate D2E/DX2                !
 ! D35   D(6,10,17,5)          -82.269          estimate D2E/DX2                !
 ! D36   D(6,10,17,8)          164.303          estimate D2E/DX2                !
 ! D37   D(6,10,17,9)          141.1443         estimate D2E/DX2                !
 ! D38   D(6,10,17,12)          33.375          estimate D2E/DX2                !
 ! D39   D(6,10,17,13)          51.7512         estimate D2E/DX2                !
 ! D40   D(7,10,17,5)          -96.7399         estimate D2E/DX2                !
 ! D41   D(7,10,17,8)          149.8321         estimate D2E/DX2                !
 ! D42   D(7,10,17,9)          126.6735         estimate D2E/DX2                !
 ! D43   D(7,10,17,12)          18.9042         estimate D2E/DX2                !
 ! D44   D(7,10,17,13)          37.2804         estimate D2E/DX2                !
 ! D45   D(6,12,17,5)           62.1675         estimate D2E/DX2                !
 ! D46   D(6,12,17,8)         -174.8943         estimate D2E/DX2                !
 ! D47   D(6,12,17,9)         -151.744          estimate D2E/DX2                !
 ! D48   D(6,12,17,10)         -45.1019         estimate D2E/DX2                !
 ! D49   D(6,12,17,11)         -71.6583         estimate D2E/DX2                !
 ! D50   D(7,12,17,5)           79.9294         estimate D2E/DX2                !
 ! D51   D(7,12,17,8)         -157.1324         estimate D2E/DX2                !
 ! D52   D(7,12,17,9)         -133.9821         estimate D2E/DX2                !
 ! D53   D(7,12,17,10)         -27.3401         estimate D2E/DX2                !
 ! D54   D(7,12,17,11)         -53.8964         estimate D2E/DX2                !
 ! D55   D(2,15,16,5)           -0.0536         estimate D2E/DX2                !
 ! D56   D(2,15,16,14)         179.86           estimate D2E/DX2                !
 --------------------------------------------------------------------------------
 Trust Radius=3.00D-01 FncErr=1.00D-07 GrdErr=1.00D-06
 Number of steps in this run= 102 maximum allowed number of steps= 102.
 GradGradGradGradGradGradGradGradGradGradGradGradGradGradGradGradGradGrad

                          Input orientation:                          
 ---------------------------------------------------------------------
 Center     Atomic      Atomic             Coordinates (Angstroms)
 Number     Number       Type             X           Y           Z
 ---------------------------------------------------------------------
      1          6           0        0.045019    1.280787    0.204369
      2          6           0        1.367984    1.042732    0.282282
      3          1           0       -0.438004    2.233545    0.373288
      4          1           0        2.155147    1.743797    0.522473
      5          7           0       -0.703112    0.147061   -0.129415
      6          1           0       -2.537847   -1.787578    2.040031
      7          1           0       -3.287974   -1.839602    2.049585
      8          1           0       -2.467451    1.005458   -1.764461
      9          1           0       -3.205045    0.930486   -1.540356
     10          1           0       -2.849169    0.818274    1.115319
     11          1           0       -3.438402    0.958244    0.633029
     12          1           0       -2.998964   -1.328658   -0.069570
     13          1           0       -3.088269   -1.194290   -0.829362
     14          1           0       -0.271121   -1.908108   -0.558852
     15         16           0        1.715987   -0.606978   -0.059505
     16          6           0        0.091083   -0.922921   -0.295099
     17          4           0       -2.282855    0.161768   -0.315610
 ---------------------------------------------------------------------
                    Distance matrix (angstroms):
                    1          2          3          4          5
     1  C    0.000000
     2  C    1.346468   0.000000
     3  H    1.081477   2.165158   0.000000
     4  H    2.183623   1.081115   2.643207   0.000000
     5  N    1.398730   2.293722   2.162500   3.338288   0.000000
     6  H    4.410863   5.133795   4.832888   6.066118   3.437379
     7  H    4.924479   5.754055   5.246220   6.693309   3.921273
     8  H    3.203842   4.347540   3.193247   5.209954   2.554039
     9  H    3.705360   4.924145   3.607840   5.800724   2.977277
    10  H    3.069214   4.304499   2.892632   5.123596   2.570107
    11  H    3.524487   4.819907   3.270512   5.649523   2.953159
    12  H    4.018716   4.981719   4.409527   6.029540   2.729884
    13  H    4.124573   5.108641   4.496701   6.160619   2.824557
    14  H    3.294162   3.478739   4.248532   4.515800   2.143537
    15  S    2.534841   1.720310   3.591039   2.461240   2.534857
    16  C    2.260071   2.414050   3.269549   3.469895   1.342780
    17  Be   2.634688   3.802920   2.858376   4.785505   1.590746
                    6          7          8          9         10
     6  H    0.000000
     7  H    0.751990   0.000000
     8  H    4.720187   4.828516   0.000000
     9  H    4.544469   4.535189   0.774525   0.000000
    10  H    2.782531   2.851264   2.910993   2.681762   0.000000
    11  H    3.214062   3.139618   2.587070   2.186053   0.774203
    12  H    2.207635   2.198956   2.933131   2.703593   2.456770
    13  H    2.981337   2.957135   2.469558   2.243618   2.808802
    14  H    3.450618   3.988739   3.842685   4.198676   4.108812
    15  S    4.888453   5.568415   4.796663   5.364072   4.924653
    16  C    3.621013   4.213772   3.524736   3.981236   3.696772
    17  Be   3.068227   3.257283   1.686730   1.715041   1.673102
                   11         12         13         14         15
    11  H    0.000000
    12  H    2.432421   0.000000
    13  H    2.625754   0.776733   0.000000
    14  H    4.434887   2.831305   2.918739   0.000000
    15  S    5.431137   4.769873   4.900866   2.427115   0.000000
    16  C    4.105785   3.124720   3.235330   1.082290   1.672016
    17  Be   1.693983   1.671741   1.658772   2.896658   4.080110
                   16         17
    16  C    0.000000
    17  Be   2.610087   0.000000
 Stoichiometry    C3H11BeNS(2+)
 Framework group  C1[X(C3H11BeNS)]
 Deg. of freedom    45
 Full point group                 C1      NOp   1
 Largest Abelian subgroup         C1      NOp   1
 Largest concise Abelian subgroup C1      NOp   1
                         Standard orientation:                         
 ---------------------------------------------------------------------
 Center     Atomic      Atomic             Coordinates (Angstroms)
 Number     Number       Type             X           Y           Z
 ---------------------------------------------------------------------
      1          6           0        0.045019    1.280787    0.204369
      2          6           0        1.367984    1.042732    0.282282
      3          1           0       -0.438004    2.233545    0.373288
      4          1           0        2.155147    1.743797    0.522473
      5          7           0       -0.703112    0.147061   -0.129415
      6          1           0       -2.537847   -1.787578    2.040031
      7          1           0       -3.287974   -1.839602    2.049585
      8          1           0       -2.467451    1.005458   -1.764461
      9          1           0       -3.205045    0.930486   -1.540356
     10          1           0       -2.849169    0.818274    1.115319
     11          1           0       -3.438402    0.958244    0.633029
     12          1           0       -2.998964   -1.328658   -0.069570
     13          1           0       -3.088269   -1.194290   -0.829362
     14          1           0       -0.271121   -1.908108   -0.558852
     15         16           0        1.715987   -0.606978   -0.059505
     16          6           0        0.091083   -0.922921   -0.295099
     17          4           0       -2.282855    0.161768   -0.315610
 ---------------------------------------------------------------------
 Rotational constants (GHZ):      5.0391601      1.9050293      1.5535189
 Standard basis: 6-311+G(d,p) (5D, 7F)
 There are   206 symmetry adapted basis functions of A   symmetry.
 Integral buffers will be    262144 words long.
 Raffenetti 2 integral format.
 Two-electron integral symmetry is turned on.
   206 basis functions,   318 primitive gaussians,   212 cartesian basis functions
    27 alpha electrons       27 beta electrons
       nuclear repulsion energy       299.6968716202 Hartrees.
 NAtoms=   17 NActive=   17 NUniq=   17 SFac= 7.50D-01 NAtFMM=   80 NAOKFM=F Big=F
 Nuclear repulsion after empirical dispersion term =      299.6884593388 Hartrees.
 One-electron integrals computed using PRISM.
 NBasis=   206 RedAO= T  NBF=   206
 NBsUse=   206 1.00D-06 NBFU=   206
 Harris functional with IExCor= 4639 diagonalized for initial guess.
 ExpMin= 2.07D-02 ExpMax= 9.34D+04 ExpMxC= 3.17D+03 IAcc=3 IRadAn=         0 AccDes= 0.00D+00
 HarFok:  IExCor= 4639 AccDes= 0.00D+00 IRadAn=         0 IDoV= 1
 ScaDFX=  1.000000  1.000000  1.000000  1.000000
 FoFCou: FMM=F IPFlag=           0 FMFlag=      100000 FMFlg1=           0
         NFxFlg=           0 DoJE=T BraDBF=F KetDBF=T FulRan=T
         Omega=  0.000000  0.000000  1.000000  0.000000  0.000000 ICntrl=     500 IOpCl=  0
         NMat0=    1 NMatS0=    1 NMatT0=    0 NMatD0=    1 NMtDS0=    0 NMtDT0=    0
         I1Cent=           4 NGrid=           0.
 Petite list used in FoFCou.
 Initial guess orbital symmetries:
       Occupied  (A) (A) (A) (A) (A) (A) (A) (A) (A) (A) (A) (A)
                 (A) (A) (A) (A) (A) (A) (A) (A) (A) (A) (A) (A)
                 (A) (A) (A)
       Virtual   (A) (A) (A) (A) (A) (A) (A) (A) (A) (A) (A) (A)
                 (A) (A) (A) (A) (A) (A) (A) (A) (A) (A) (A) (A)
                 (A) (A) (A) (A) (A) (A) (A) (A) (A) (A) (A) (A)
                 (A) (A) (A) (A) (A) (A) (A) (A) (A) (A) (A) (A)
                 (A) (A) (A) (A) (A) (A) (A) (A) (A) (A) (A) (A)
                 (A) (A) (A) (A) (A) (A) (A) (A) (A) (A) (A) (A)
                 (A) (A) (A) (A) (A) (A) (A) (A) (A) (A) (A) (A)
                 (A) (A) (A) (A) (A) (A) (A) (A) (A) (A) (A) (A)
                 (A) (A) (A) (A) (A) (A) (A) (A) (A) (A) (A) (A)
                 (A) (A) (A) (A) (A) (A) (A) (A) (A) (A) (A) (A)
                 (A) (A) (A) (A) (A) (A) (A) (A) (A) (A) (A) (A)
                 (A) (A) (A) (A) (A) (A) (A) (A) (A) (A) (A) (A)
                 (A) (A) (A) (A) (A) (A) (A) (A) (A) (A) (A) (A)
                 (A) (A) (A) (A) (A) (A) (A) (A) (A) (A) (A) (A)
                 (A) (A) (A) (A) (A) (A) (A) (A) (A) (A) (A)
 The electronic state of the initial guess is 1-A.
 Requested convergence on RMS density matrix=1.00D-08 within 128 cycles.
 Requested convergence on MAX density matrix=1.00D-06.
 Requested convergence on             energy=1.00D-06.
 No special actions if energy rises.
 FoFJK:  IHMeth= 1 ICntrl=     0 DoSepK=T KAlg= 1 I1Cent= 0 FoldK=F
 FoFJK:  IHMeth= 1 ICntrl=     0 DoSepK=T KAlg= 1 I1Cent= 0 FoldK=F
 FoFJK:  IHMeth= 1 ICntrl=     0 DoSepK=T KAlg= 1 I1Cent= 0 FoldK=F
 FoFJK:  IHMeth= 1 ICntrl=     0 DoSepK=T KAlg= 1 I1Cent= 0 FoldK=F
 FoFJK:  IHMeth= 1 ICntrl=     0 DoSepK=T KAlg= 1 I1Cent= 0 FoldK=F
 FoFJK:  IHMeth= 1 ICntrl=     0 DoSepK=T KAlg= 1 I1Cent= 0 FoldK=F
 FoFJK:  IHMeth= 1 ICntrl=     0 DoSepK=T KAlg= 1 I1Cent= 0 FoldK=F
 FoFJK:  IHMeth= 1 ICntrl=     0 DoSepK=T KAlg= 1 I1Cent= 0 FoldK=F
 FoFJK:  IHMeth= 1 ICntrl=     0 DoSepK=T KAlg= 1 I1Cent= 0 FoldK=F
 FoFJK:  IHMeth= 1 ICntrl=     0 DoSepK=T KAlg= 1 I1Cent= 0 FoldK=F
 FoFJK:  IHMeth= 1 ICntrl=     0 DoSepK=T KAlg= 1 I1Cent= 0 FoldK=F
 FoFJK:  IHMeth= 1 ICntrl=     0 DoSepK=T KAlg= 1 I1Cent= 0 FoldK=F
 FoFJK:  IHMeth= 1 ICntrl=     0 DoSepK=T KAlg= 1 I1Cent= 0 FoldK=F
 FoFJK:  IHMeth= 1 ICntrl=     0 DoSepK=T KAlg= 1 I1Cent= 0 FoldK=F
 SCF Done:  E(RwB97XD) =  -587.857323035     A.U. after   14 cycles
             Convg  =    0.3170D-08             -V/T =  2.0023

 **********************************************************************

            Population analysis using the SCF density.

 **********************************************************************

 Orbital symmetries:
       Occupied  (A) (A) (A) (A) (A) (A) (A) (A) (A) (A) (A) (A)
                 (A) (A) (A) (A) (A) (A) (A) (A) (A) (A) (A) (A)
                 (A) (A) (A)
       Virtual   (A) (A) (A) (A) (A) (A) (A) (A) (A) (A) (A) (A)
                 (A) (A) (A) (A) (A) (A) (A) (A) (A) (A) (A) (A)
                 (A) (A) (A) (A) (A) (A) (A) (A) (A) (A) (A) (A)
                 (A) (A) (A) (A) (A) (A) (A) (A) (A) (A) (A) (A)
                 (A) (A) (A) (A) (A) (A) (A) (A) (A) (A) (A) (A)
                 (A) (A) (A) (A) (A) (A) (A) (A) (A) (A) (A) (A)
                 (A) (A) (A) (A) (A) (A) (A) (A) (A) (A) (A) (A)
                 (A) (A) (A) (A) (A) (A) (A) (A) (A) (A) (A) (A)
                 (A) (A) (A) (A) (A) (A) (A) (A) (A) (A) (A) (A)
                 (A) (A) (A) (A) (A) (A) (A) (A) (A) (A) (A) (A)
                 (A) (A) (A) (A) (A) (A) (A) (A) (A) (A) (A) (A)
                 (A) (A) (A) (A) (A) (A) (A) (A) (A) (A) (A) (A)
                 (A) (A) (A) (A) (A) (A) (A) (A) (A) (A) (A) (A)
                 (A) (A) (A) (A) (A) (A) (A) (A) (A) (A) (A) (A)
                 (A) (A) (A) (A) (A) (A) (A) (A) (A) (A) (A)
 The electronic state is 1-A.
 Alpha  occ. eigenvalues --  -89.39958 -14.84147 -10.71232 -10.66461 -10.64575
 Alpha  occ. eigenvalues --   -8.43904  -6.38684  -6.38252  -6.38136  -4.60072
 Alpha  occ. eigenvalues --   -1.44317  -1.25968  -1.20002  -1.06031  -1.04263
 Alpha  occ. eigenvalues --   -1.01426  -0.97936  -0.97904  -0.97636  -0.87028
 Alpha  occ. eigenvalues --   -0.86688  -0.84252  -0.82256  -0.80894  -0.77347
 Alpha  occ. eigenvalues --   -0.71757  -0.67246
 Alpha virt. eigenvalues --   -0.32641  -0.31115  -0.28860  -0.26161  -0.24658
 Alpha virt. eigenvalues --   -0.23470  -0.21992  -0.21134  -0.19558  -0.18683
 Alpha virt. eigenvalues --   -0.18234  -0.16596  -0.15777  -0.14860  -0.14091
 Alpha virt. eigenvalues --   -0.12798  -0.12302  -0.10955  -0.10193  -0.09610
 Alpha virt. eigenvalues --   -0.08921  -0.08174  -0.07826  -0.07035  -0.06775
 Alpha virt. eigenvalues --   -0.05733  -0.05293  -0.04180  -0.03308  -0.02732
 Alpha virt. eigenvalues --   -0.02041  -0.01404  -0.00552   0.00197   0.01396
 Alpha virt. eigenvalues --    0.02017   0.02630   0.03175   0.03464   0.05260
 Alpha virt. eigenvalues --    0.06475   0.06887   0.07795   0.09435   0.11401
 Alpha virt. eigenvalues --    0.13026   0.13244   0.14376   0.14898   0.15235
 Alpha virt. eigenvalues --    0.18827   0.19485   0.20428   0.20855   0.23535
 Alpha virt. eigenvalues --    0.26783   0.27658   0.29750   0.30272   0.32237
 Alpha virt. eigenvalues --    0.33110   0.34727   0.36688   0.38930   0.38983
 Alpha virt. eigenvalues --    0.40473   0.41267   0.45153   0.46630   0.47354
 Alpha virt. eigenvalues --    0.49554   0.50906   0.51830   0.53514   0.56064
 Alpha virt. eigenvalues --    0.58949   0.60780   0.61209   0.63402   0.66602
 Alpha virt. eigenvalues --    0.70062   0.72047   0.73321   0.75685   0.77345
 Alpha virt. eigenvalues --    0.79703   0.82431   0.82817   0.85401   0.88605
 Alpha virt. eigenvalues --    0.93514   0.96810   0.98901   0.99412   1.04378
 Alpha virt. eigenvalues --    1.06252   1.09920   1.12120   1.15515   1.22166
 Alpha virt. eigenvalues --    1.25739   1.27041   1.29712   1.32370   1.33861
 Alpha virt. eigenvalues --    1.34114   1.36101   1.37837   1.40274   1.43322
 Alpha virt. eigenvalues --    1.44772   1.45347   1.46433   1.48364   1.51899
 Alpha virt. eigenvalues --    1.52572   1.54682   1.59056   1.59747   1.61237
 Alpha virt. eigenvalues --    1.63289   1.64588   1.67300   1.68016   1.69977
 Alpha virt. eigenvalues --    1.71985   1.74530   1.75317   1.77599   1.82836
 Alpha virt. eigenvalues --    1.84095   1.84795   1.90218   1.95175   1.96371
 Alpha virt. eigenvalues --    1.99200   2.09237   2.13673   2.15286   2.23439
 Alpha virt. eigenvalues --    2.25252   2.29344   2.29727   2.36607   2.43834
 Alpha virt. eigenvalues --    2.46682   2.51939   2.52978   2.53261   2.54830
 Alpha virt. eigenvalues --    2.56769   2.58730   2.61278   2.64472   2.71093
 Alpha virt. eigenvalues --    2.82606   2.83698   2.87146   2.90861   2.99549
 Alpha virt. eigenvalues --    3.08341   3.15683   3.30344   3.34708   3.56372
 Alpha virt. eigenvalues --    3.63767   3.83720   4.17956   4.68586   7.73971
 Alpha virt. eigenvalues --    8.02408  17.07023  17.22219  17.28397  23.49153
 Alpha virt. eigenvalues --   23.59135  23.98532  35.30518 188.98725
          Condensed to atoms (all electrons):
              1          2          3          4          5          6
     1  C    5.231008   0.403607   0.400657  -0.017828   0.192897   0.010778
     2  C    0.403607   5.421347   0.004559   0.374440  -0.067464  -0.008783
     3  H    0.400657   0.004559   0.401740  -0.002022  -0.056574  -0.000011
     4  H   -0.017828   0.374440  -0.002022   0.338250   0.011744   0.000000
     5  N    0.192897  -0.067464  -0.056574   0.011744   6.775416  -0.070865
     6  H    0.010778  -0.008783  -0.000011   0.000000  -0.070865   0.589459
     7  H    0.004425  -0.002989  -0.000003   0.000000  -0.036173   0.375205
     8  H    0.002438  -0.003049  -0.000327   0.000001  -0.026878  -0.000015
     9  H    0.000508  -0.001567  -0.000206   0.000000  -0.028846   0.000084
    10  H    0.002481   0.001012   0.000324   0.000001  -0.001686  -0.004392
    11  H   -0.002522   0.002471  -0.000165   0.000000   0.004899  -0.002831
    12  H    0.001334  -0.002397   0.000030   0.000000  -0.011048   0.011584
    13  H   -0.009138   0.005933   0.000038   0.000000   0.081192  -0.012862
    14  H    0.011435  -0.004490   0.000088  -0.000006  -0.019205  -0.000932
    15  S    0.202882   0.097660  -0.009193   0.005558  -0.083555   0.000881
    16  C   -0.272327   0.194157   0.022305  -0.007844   0.284078  -0.030231
    17  Be   0.142066  -0.252421   0.002297   0.000279  -0.490953   0.142286
              7          8          9         10         11         12
     1  C    0.004425   0.002438   0.000508   0.002481  -0.002522   0.001334
     2  C   -0.002989  -0.003049  -0.001567   0.001012   0.002471  -0.002397
     3  H   -0.000003  -0.000327  -0.000206   0.000324  -0.000165   0.000030
     4  H    0.000000   0.000001   0.000000   0.000001   0.000000   0.000000
     5  N   -0.036173  -0.026878  -0.028846  -0.001686   0.004899  -0.011048
     6  H    0.375205  -0.000015   0.000084  -0.004392  -0.002831   0.011584
     7  H    0.503330  -0.000012   0.000024  -0.002763  -0.002059   0.009905
     8  H   -0.000012   0.417631   0.283505  -0.001920  -0.002689  -0.001938
     9  H    0.000024   0.283505   0.460668  -0.003975  -0.006409  -0.003277
    10  H   -0.002763  -0.001920  -0.003975   0.424693   0.282229  -0.002958
    11  H   -0.002059  -0.002689  -0.006409   0.282229   0.450227  -0.005522
    12  H    0.009905  -0.001938  -0.003277  -0.002958  -0.005522   0.447841
    13  H   -0.010245  -0.001997  -0.005158   0.000554  -0.000079   0.271982
    14  H   -0.000293  -0.000019  -0.000003   0.000045   0.000023   0.000341
    15  S    0.000138  -0.000012  -0.000224   0.000451  -0.000437   0.002225
    16  C   -0.015666  -0.001719  -0.002515  -0.000344   0.002491  -0.003958
    17  Be   0.084597   0.140055   0.143233   0.105360   0.103298   0.135630
             13         14         15         16         17
     1  C   -0.009138   0.011435   0.202882  -0.272327   0.142066
     2  C    0.005933  -0.004490   0.097660   0.194157  -0.252421
     3  H    0.000038   0.000088  -0.009193   0.022305   0.002297
     4  H    0.000000  -0.000006   0.005558  -0.007844   0.000279
     5  N    0.081192  -0.019205  -0.083555   0.284078  -0.490953
     6  H   -0.012862  -0.000932   0.000881  -0.030231   0.142286
     7  H   -0.010245  -0.000293   0.000138  -0.015666   0.084597
     8  H   -0.001997  -0.000019  -0.000012  -0.001719   0.140055
     9  H   -0.005158  -0.000003  -0.000224  -0.002515   0.143233
    10  H    0.000554   0.000045   0.000451  -0.000344   0.105360
    11  H   -0.000079   0.000023  -0.000437   0.002491   0.103298
    12  H    0.271982   0.000341   0.002225  -0.003958   0.135630
    13  H    0.476390   0.001647   0.000492   0.028490  -0.019289
    14  H    0.001647   0.367496   0.008964   0.370430  -0.009231
    15  S    0.000492   0.008964  15.285776   0.038160   0.030690
    16  C    0.028490   0.370430   0.038160   5.981356  -0.379167
    17  Be  -0.019289  -0.009231   0.030690  -0.379167   4.391578
 Mulliken atomic charges:
              1
     1  C   -0.304701
     2  C   -0.162025
     3  H    0.236464
     4  H    0.297428
     5  N    0.543022
     6  H    0.000644
     7  H    0.092580
     8  H    0.196944
     9  H    0.164159
    10  H    0.200886
    11  H    0.177075
    12  H    0.150227
    13  H    0.192052
    14  H    0.273708
    15  S    0.419544
    16  C   -0.207697
    17  Be  -0.270307
 Sum of Mulliken atomic charges =   2.00000
 Mulliken charges with hydrogens summed into heavy atoms:
              1
     1  C   -0.068237
     2  C    0.135402
     5  N    0.543022
    15  S    0.419544
    16  C    0.066011
    17  Be   0.904258
 Sum of Mulliken charges with hydrogens summed into heavy atoms =   2.00000
 Electronic spatial extent (au):  <R**2>=            855.6376
 Charge=              2.0000 electrons
 Dipole moment (field-independent basis, Debye):
    X=            -13.3578    Y=              0.9857    Z=             -1.7077  Tot=             13.5025
 Quadrupole moment (field-independent basis, Debye-Ang):
   XX=             20.4851   YY=            -26.1055   ZZ=            -35.8359
   XY=             -0.4042   XZ=              5.8388   YZ=              1.1448
 Traceless Quadrupole moment (field-independent basis, Debye-Ang):
   XX=             34.3039   YY=            -12.2867   ZZ=            -22.0171
   XY=             -0.4042   XZ=              5.8388   YZ=              1.1448
 Octapole moment (field-independent basis, Debye-Ang**2):
  XXX=           -135.3348  YYY=              1.8907  ZZZ=             -6.3793  XYY=            -12.8426
  XXY=              9.8241  XXZ=             -9.1943  XZZ=            -22.2282  YZZ=              0.9012
  YYZ=              0.4852  XYZ=              6.9014
 Hexadecapole moment (field-independent basis, Debye-Ang**3):
 XXXX=           -193.9294 YYYY=           -221.5976 ZZZZ=           -111.0059 XXXY=             -3.7893
 XXXZ=             37.3708 YYYX=              8.6718 YYYZ=             12.2967 ZZZX=             13.9315
 ZZZY=             -9.9004 XXYY=            -91.4117 XXZZ=            -76.3939 YYZZ=            -55.1545
 XXYZ=             -9.0910 YYXZ=              3.9643 ZZXY=             -5.3526
 N-N= 2.996884593388D+02 E-N=-1.965577634307D+03  KE= 5.865204118797D+02
 Calling FoFJK, ICntrl=      2127 FMM=F ISym2X=0 I1Cent= 0 IOpClX= 0 NMat=1 NMatS=1 NMatT=0.
 FoFJK:  IHMeth= 1 ICntrl=  2127 DoSepK=T KAlg= 1 I1Cent= 0 FoldK=F
 ***** Axes restored to original set *****
 -------------------------------------------------------------------
 Center     Atomic                   Forces (Hartrees/Bohr)
 Number     Number              X              Y              Z
 -------------------------------------------------------------------
      1        6          -0.002783121   -0.000290528   -0.000324523
      2        6           0.002439280   -0.000589818    0.000114470
      3        1          -0.000330515    0.000285205   -0.000000441
      4        1           0.000111100    0.000218504    0.000076974
      5        7           0.002150502    0.001071971    0.000618114
      6        1          -0.001015470    0.000312483   -0.000325812
      7        1           0.001312357    0.000215178   -0.000162086
      8        1          -0.001701919    0.000544054   -0.000590335
      9        1           0.000968366    0.000573440   -0.001289441
     10        1          -0.001688852    0.000730542    0.000139474
     11        1           0.000389207    0.000191631    0.001750120
     12        1          -0.000671077   -0.000900136   -0.001442210
     13        1          -0.000653965   -0.001489714    0.001054723
     14        1          -0.000446031   -0.000367199   -0.000069982
     15       16           0.000880853    0.000363695    0.000220219
     16        6          -0.000340455   -0.000904366   -0.000232854
     17        4           0.001379741    0.000035057    0.000463590
 -------------------------------------------------------------------
 Cartesian Forces:  Max     0.002783121 RMS     0.000973358

 GradGradGradGradGradGradGradGradGradGradGradGradGradGradGradGradGradGrad
 Berny optimization.
 Internal  Forces:  Max     0.002465635 RMS     0.000482954
 Search for a local minimum.
 Step number   1 out of a maximum of  102
 All quantities printed in internal units (Hartrees-Bohrs-Radians)
 Mixed Optimization -- En-DIIS/RFO-DIIS
 Second derivative matrix not updated -- first step.
     Eigenvalues ---    0.00320   0.00862   0.01018   0.01751   0.01965
     Eigenvalues ---    0.02105   0.02330   0.02333   0.02384   0.02450
     Eigenvalues ---    0.02613   0.02685   0.02867   0.02874   0.06203
     Eigenvalues ---    0.06692   0.07035   0.07344   0.07634   0.07950
     Eigenvalues ---    0.08194   0.08672   0.09199   0.10564   0.14126
     Eigenvalues ---    0.14566   0.16000   0.16000   0.16000   0.22474
     Eigenvalues ---    0.23496   0.24458   0.24990   0.26737   0.28372
     Eigenvalues ---    0.28941   0.29549   0.32651   0.35719   0.35816
     Eigenvalues ---    0.35860   0.37792   0.44456   0.51690   0.55689
     Eigenvalues --- 1000.000001000.000001000.000001000.000001000.00000
     Eigenvalues --- 1000.000001000.000001000.000001000.000001000.00000
     Eigenvalues --- 1000.000001000.000001000.000001000.000001000.00000
     Eigenvalues --- 1000.000001000.000001000.000001000.000001000.00000
     Eigenvalues --- 1000.000001000.000001000.000001000.000001000.00000
     Eigenvalues --- 1000.000001000.000001000.000001000.000001000.00000
     Eigenvalues --- 1000.000001000.000001000.000001000.000001000.00000
     Eigenvalues --- 1000.000001000.000001000.000001000.000001000.00000
     Eigenvalues --- 1000.000001000.000001000.000001000.000001000.00000
     Eigenvalues --- 1000.000001000.000001000.000001000.000001000.00000
     Eigenvalues --- 1000.000001000.000001000.000001000.000001000.00000
     Eigenvalues --- 1000.000001000.000001000.000001000.000001000.00000
     Eigenvalues --- 1000.000001000.000001000.000001000.000001000.00000
     Eigenvalues --- 1000.000001000.000001000.000001000.000001000.00000
     Eigenvalues --- 1000.000001000.000001000.000001000.000001000.00000
 RFO step:  Lambda=-1.76047371D-04 EMin= 3.20182064D-03
 Linear search not attempted -- first point.
 Iteration  1 RMS(Cart)=  0.00533674 RMS(Int)=  0.00002293
 Iteration  2 RMS(Cart)=  0.00001505 RMS(Int)=  0.00000481
 Iteration  3 RMS(Cart)=  0.00000000 RMS(Int)=  0.00000481
 Variable       Old X    -DE/DX   Delta X   Delta X   Delta X     New X
                                 (Linear)    (Quad)   (Total)
    R1        2.54446   0.00247   0.00000   0.00450   0.00450   2.54896
    R2        2.04370   0.00039   0.00000   0.00109   0.00109   2.04479
    R3        2.64322  -0.00082   0.00000  -0.00179  -0.00179   2.64142
    R4        2.04301   0.00024   0.00000   0.00066   0.00066   2.04367
    R5        3.25092   0.00007   0.00000   0.00031   0.00031   3.25123
    R6        2.53749   0.00080   0.00000   0.00134   0.00134   2.53883
    R7        3.00607   0.00173   0.00000   0.00706   0.00706   3.01313
    R8        1.42105  -0.00081   0.00000  -0.00304  -0.00303   1.41802
    R9        5.25822  -0.00017   0.00000  -0.00780  -0.00780   5.25042
   R10        4.17183  -0.00022   0.00000  -0.00636  -0.00636   4.16547
   R11        5.38811  -0.00002   0.00000   0.00165   0.00165   5.38976
   R12        4.15543  -0.00016   0.00000  -0.00277  -0.00277   4.15266
   R13        1.46364  -0.00115   0.00000  -0.00412  -0.00413   1.45951
   R14        3.18746   0.00119   0.00000   0.01631   0.01631   3.20377
   R15        3.24096   0.00096   0.00000   0.01435   0.01435   3.25531
   R16        1.46303  -0.00109   0.00000  -0.00397  -0.00398   1.45905
   R17        3.16170   0.00097   0.00000   0.01095   0.01094   3.17265
   R18        3.20116   0.00105   0.00000   0.01507   0.01507   3.21624
   R19        1.46781  -0.00104   0.00000  -0.00329  -0.00329   1.46452
   R20        3.15913   0.00083   0.00000   0.00847   0.00847   3.16761
   R21        3.13463   0.00125   0.00000   0.01607   0.01607   3.15069
   R22        2.04523   0.00051   0.00000   0.00142   0.00142   2.04665
   R23        3.15965   0.00112   0.00000   0.00275   0.00275   3.16240
    A1        2.19636   0.00025   0.00000   0.00128   0.00128   2.19764
    A2        1.97799  -0.00015   0.00000  -0.00042  -0.00042   1.97757
    A3        2.10883  -0.00010   0.00000  -0.00086  -0.00086   2.10798
    A4        2.23141   0.00003   0.00000  -0.00018  -0.00018   2.23123
    A5        1.93564  -0.00022   0.00000  -0.00059  -0.00059   1.93505
    A6        2.11613   0.00019   0.00000   0.00078   0.00078   2.11691
    A7        1.93796   0.00046   0.00000   0.00176   0.00176   1.93971
    A8        2.15508  -0.00025   0.00000  -0.00095  -0.00095   2.15413
    A9        2.18988  -0.00021   0.00000  -0.00077  -0.00077   2.18911
   A10        1.00556   0.00048   0.00000   0.00531   0.00531   1.01087
   A11        0.98531   0.00045   0.00000   0.00344   0.00344   0.98876
   A12        2.05047  -0.00001   0.00000   0.00076   0.00075   2.05122
   A13        1.44938  -0.00035   0.00000  -0.00398  -0.00399   1.44539
   A14        1.82918   0.00011   0.00000   0.00124   0.00124   1.83043
   A15        1.53735  -0.00035   0.00000  -0.00340  -0.00340   1.53395
   A16        3.03886   0.00016   0.00000  -0.00010  -0.00010   3.03876
   A17        1.80956  -0.00050   0.00000  -0.00624  -0.00625   1.80331
   A18        2.88704   0.00004   0.00000  -0.00024  -0.00025   2.88678
   A19        1.98809  -0.00052   0.00000  -0.00354  -0.00355   1.98454
   A20        1.58340   0.00015   0.00000   0.00065   0.00065   1.58405
   A21        2.16214  -0.00018   0.00000  -0.00121  -0.00121   2.16093
   A22        1.98978  -0.00025   0.00000  -0.00139  -0.00139   1.98839
   A23        2.13126   0.00043   0.00000   0.00260   0.00260   2.13386
   A24        1.78631   0.00037   0.00000   0.00374   0.00374   1.79005
   A25        2.24173  -0.00014   0.00000   0.00039   0.00040   2.24213
   A26        1.81281   0.00009   0.00000   0.00070   0.00070   1.81351
   A27        2.23474  -0.00034   0.00000  -0.00130  -0.00130   2.23344
   A28        1.98224  -0.00001   0.00000  -0.00152  -0.00152   1.98072
   A29        2.10701  -0.00006   0.00000  -0.00029  -0.00031   2.10670
   A30        2.09593  -0.00030   0.00000  -0.00190  -0.00190   2.09403
   A31        1.74284   0.00002   0.00000   0.00076   0.00076   1.74359
   A32        2.12408  -0.00034   0.00000  -0.00127  -0.00126   2.12282
   A33        1.66065   0.00017   0.00000   0.00158   0.00158   1.66223
   A34        1.82645   0.00001   0.00000   0.00039   0.00039   1.82684
   A35        1.39222   0.00051   0.00000   0.00391   0.00390   1.39612
   A36        1.84874  -0.00003   0.00000   0.00021   0.00020   1.84894
   A37        1.45470   0.00031   0.00000   0.00162   0.00162   1.45632
   A38        1.64984   0.00020   0.00000  -0.00001  -0.00002   1.64982
   A39        2.00570  -0.00024   0.00000  -0.00325  -0.00325   2.00245
   A40        1.61537   0.00017   0.00000  -0.00097  -0.00098   1.61439
   A41        1.79938   0.00008   0.00000  -0.00204  -0.00205   1.79734
    D1        0.00198   0.00001   0.00000   0.00033   0.00033   0.00231
    D2       -3.14128  -0.00001   0.00000  -0.00013  -0.00013  -3.14142
    D3       -3.14007   0.00001   0.00000   0.00055   0.00055  -3.13952
    D4       -0.00015   0.00000   0.00000   0.00009   0.00009  -0.00007
    D5       -0.00053  -0.00002   0.00000  -0.00090  -0.00090  -0.00144
    D6       -3.11849  -0.00005   0.00000  -0.00233  -0.00233  -3.12083
    D7        3.14063  -0.00001   0.00000  -0.00070  -0.00070   3.13993
    D8        0.02267  -0.00004   0.00000  -0.00213  -0.00213   0.02054
    D9        0.00060   0.00001   0.00000   0.00056   0.00056   0.00116
   D10        3.14065   0.00000   0.00000   0.00013   0.00013   3.14078
   D11       -3.13905  -0.00004   0.00000  -0.00185  -0.00185  -3.14090
   D12        0.00101   0.00003   0.00000   0.00135   0.00135   0.00236
   D13       -0.02166  -0.00001   0.00000  -0.00039  -0.00039  -0.02205
   D14        3.11840   0.00006   0.00000   0.00281   0.00281   3.12121
   D15        1.24619  -0.00007   0.00000  -0.00057  -0.00057   1.24563
   D16        1.18104   0.00007   0.00000   0.00119   0.00119   1.18223
   D17       -0.94658   0.00006   0.00000  -0.00047  -0.00048  -0.94706
   D18       -0.72937  -0.00025   0.00000  -0.00441  -0.00441  -0.73378
   D19       -2.71512  -0.00021   0.00000  -0.00029  -0.00029  -2.71540
   D20        3.05622   0.00037   0.00000   0.00374   0.00374   3.05995
   D21       -1.86832  -0.00011   0.00000  -0.00224  -0.00224  -1.87055
   D22       -1.93346   0.00003   0.00000  -0.00048  -0.00048  -1.93395
   D23        2.22210   0.00002   0.00000  -0.00214  -0.00215   2.21995
   D24        2.43931  -0.00030   0.00000  -0.00608  -0.00608   2.43323
   D25        0.45356  -0.00026   0.00000  -0.00196  -0.00196   0.45160
   D26       -0.05829   0.00032   0.00000   0.00207   0.00206  -0.05623
   D27        0.75682   0.00007   0.00000  -0.00098  -0.00098   0.75584
   D28       -0.51412  -0.00012   0.00000  -0.00362  -0.00363  -0.51774
   D29        1.95980   0.00004   0.00000   0.00549   0.00549   1.96529
   D30        0.52684   0.00005   0.00000   0.00302   0.00302   0.52986
   D31        1.04973  -0.00003   0.00000  -0.00075  -0.00075   1.04898
   D32       -0.29904  -0.00026   0.00000  -0.00431  -0.00432  -0.30336
   D33       -1.91443   0.00004   0.00000  -0.01069  -0.01069  -1.92512
   D34        0.32820   0.00022   0.00000   0.00445   0.00445   0.33266
   D35       -1.43587   0.00007   0.00000   0.00512   0.00512  -1.43075
   D36        2.86763  -0.00031   0.00000   0.00085   0.00085   2.86848
   D37        2.46343   0.00018   0.00000   0.00395   0.00393   2.46737
   D38        0.58250   0.00014   0.00000   0.00367   0.00366   0.58617
   D39        0.90323  -0.00011   0.00000   0.00276   0.00275   0.90598
   D40       -1.68843   0.00023   0.00000   0.00587   0.00588  -1.68255
   D41        2.61506  -0.00015   0.00000   0.00160   0.00161   2.61668
   D42        2.21087   0.00033   0.00000   0.00470   0.00469   2.21556
   D43        0.32994   0.00030   0.00000   0.00442   0.00442   0.33436
   D44        0.65067   0.00004   0.00000   0.00352   0.00351   0.65418
   D45        1.08503   0.00013   0.00000  -0.00317  -0.00317   1.08186
   D46       -3.05248   0.00036   0.00000  -0.00030  -0.00030  -3.05278
   D47       -2.64843  -0.00015   0.00000  -0.00406  -0.00405  -2.65248
   D48       -0.78718  -0.00008   0.00000  -0.00362  -0.00361  -0.79079
   D49       -1.25067   0.00043   0.00000  -0.00027  -0.00027  -1.25094
   D50        1.39503  -0.00014   0.00000  -0.00586  -0.00587   1.38916
   D51       -2.74248   0.00009   0.00000  -0.00299  -0.00300  -2.74548
   D52       -2.33843  -0.00042   0.00000  -0.00675  -0.00675  -2.34518
   D53       -0.47717  -0.00034   0.00000  -0.00631  -0.00631  -0.48348
   D54       -0.94067   0.00016   0.00000  -0.00296  -0.00297  -0.94364
   D55       -0.00094  -0.00002   0.00000  -0.00111  -0.00111  -0.00205
   D56        3.13915   0.00004   0.00000   0.00202   0.00203   3.14118
         Item               Value     Threshold  Converged?
 Maximum Force            0.002466     0.000450     NO 
 RMS     Force            0.000483     0.000300     NO 
 Maximum Displacement     0.022528     0.001800     NO 
 RMS     Displacement     0.005339     0.001200     NO 
 Predicted change in Energy=-8.819504D-05
 GradGradGradGradGradGradGradGradGradGradGradGradGradGradGradGradGradGrad

                          Input orientation:                          
 ---------------------------------------------------------------------
 Center     Atomic      Atomic             Coordinates (Angstroms)
 Number     Number       Type             X           Y           Z
 ---------------------------------------------------------------------
      1          6           0        0.046298    1.280323    0.204155
      2          6           0        1.371219    1.040924    0.285799
      3          1           0       -0.437920    2.233546    0.370717
      4          1           0        2.158393    1.741944    0.527641
      5          7           0       -0.700872    0.147211   -0.129891
      6          1           0       -2.528217   -1.781318    2.034494
      7          1           0       -3.276053   -1.841426    2.048834
      8          1           0       -2.474766    1.011560   -1.772665
      9          1           0       -3.209815    0.934468   -1.548466
     10          1           0       -2.853866    0.821376    1.118279
     11          1           0       -3.443938    0.960117    0.640053
     12          1           0       -3.001134   -1.331907   -0.071020
     13          1           0       -3.094678   -1.201059   -0.829138
     14          1           0       -0.273279   -1.910180   -0.556104
     15         16           0        1.717853   -0.609779   -0.053403
     16          6           0        0.092004   -0.924906   -0.293841
     17          4           0       -2.284222    0.163122   -0.317299
 ---------------------------------------------------------------------
                    Distance matrix (angstroms):
                    1          2          3          4          5
     1  C    0.000000
     2  C    1.348850   0.000000
     3  H    1.082055   2.168535   0.000000
     4  H    2.186020   1.081462   2.647100   0.000000
     5  N    1.397781   2.294577   2.161607   3.339299   0.000000
     6  H    4.399081   5.121386   4.822513   6.053784   3.426803
     7  H    4.917943   5.745727   5.241800   6.684891   3.915747
     8  H    3.214936   4.362309   3.199387   5.224082   2.567588
     9  H    3.713970   4.935761   3.613070   5.812048   2.987796
    10  H    3.075257   4.311911   2.896528   5.130209   2.578335
    11  H    3.531896   4.828848   3.275716   5.657739   2.962777
    12  H    4.023221   4.987497   4.413350   6.035535   2.735409
    13  H    4.134088   5.119943   4.504945   6.172267   2.834976
    14  H    3.295365   3.481694   4.249302   4.519463   2.144143
    15  S    2.536320   1.720475   3.593290   2.462172   2.535569
    16  C    2.261222   2.415960   3.270822   3.472303   1.343490
    17  Be   2.636546   3.807429   2.858121   4.789930   1.594482
                    6          7          8          9         10
     6  H    0.000000
     7  H    0.750384   0.000000
     8  H    4.722021   4.835850   0.000000
     9  H    4.547271   4.544287   0.772338   0.000000
    10  H    2.778401   2.852137   2.921891   2.692772   0.000000
    11  H    3.209124   3.140301   2.600606   2.201157   0.772097
    12  H    2.204271   2.197492   2.943552   2.713458   2.464294
    13  H    2.976233   2.953927   2.483993   2.256361   2.817919
    14  H    3.436939   3.975811   3.855273   4.207142   4.113925
    15  S    4.874518   5.556568   4.812760   5.376042   4.931699
    16  C    3.608344   4.203801   3.539086   3.991662   3.704286
    17  Be   3.061260   3.255845   1.695360   1.722635   1.678892
                   11         12         13         14         15
    11  H    0.000000
    12  H    2.440303   0.000000
    13  H    2.636511   0.774993   0.000000
    14  H    4.440999   2.830352   2.921932   0.000000
    15  S    5.439627   4.773952   4.910380   2.430711   0.000000
    16  C    4.114409   3.127747   3.243107   1.083041   1.673470
    17  Be   1.701960   1.676225   1.667276   2.898189   4.084558
                   16         17
    16  C    0.000000
    17  Be   2.613580   0.000000
 Stoichiometry    C3H11BeNS(2+)
 Framework group  C1[X(C3H11BeNS)]
 Deg. of freedom    45
 Full point group                 C1      NOp   1
 Largest Abelian subgroup         C1      NOp   1
 Largest concise Abelian subgroup C1      NOp   1
                         Standard orientation:                         
 ---------------------------------------------------------------------
 Center     Atomic      Atomic             Coordinates (Angstroms)
 Number     Number       Type             X           Y           Z
 ---------------------------------------------------------------------
      1          6           0        0.043665    1.281195    0.203648
      2          6           0        1.369136    1.043721    0.281937
      3          1           0       -0.441614    2.233484    0.372446
      4          1           0        2.155802    1.745658    0.522773
      5          7           0       -0.702552    0.147336   -0.129989
      6          1           0       -2.521933   -1.786498    2.036372
      7          1           0       -3.269640   -1.847762    2.052377
      8          1           0       -2.481568    1.010895   -1.767633
      9          1           0       -3.215977    0.932420   -1.541820
     10          1           0       -2.853667    0.816763    1.123959
     11          1           0       -3.445058    0.955162    0.647265
     12          1           0       -3.000419   -1.335355   -0.067512
     13          1           0       -3.095921   -1.203766   -0.825257
     14          1           0       -0.272821   -1.908903   -0.559598
     15         16           0        1.717492   -0.606055   -0.059997
     16          6           0        0.091571   -0.923379   -0.297031
     17          4           0       -2.286356    0.161052   -0.313705
 ---------------------------------------------------------------------
 Rotational constants (GHZ):      5.0320504      1.9018402      1.5511409
 Standard basis: 6-311+G(d,p) (5D, 7F)
 There are   206 symmetry adapted basis functions of A   symmetry.
 Integral buffers will be    262144 words long.
 Raffenetti 2 integral format.
 Two-electron integral symmetry is turned on.
   206 basis functions,   318 primitive gaussians,   212 cartesian basis functions
    27 alpha electrons       27 beta electrons
       nuclear repulsion energy       299.4551276431 Hartrees.
 NAtoms=   17 NActive=   17 NUniq=   17 SFac= 7.50D-01 NAtFMM=   80 NAOKFM=F Big=F
 Nuclear repulsion after empirical dispersion term =      299.4467335330 Hartrees.
 One-electron integrals computed using PRISM.
 NBasis=   206 RedAO= T  NBF=   206
 NBsUse=   206 1.00D-06 NBFU=   206
 Initial guess read from the read-write file.
 B after Tr=     0.000000    0.000000    0.000000
         Rot=    1.000000    0.000000    0.000000    0.000000 Ang=   0.00 deg.
 Initial guess orbital symmetries:
       Occupied  (A) (A) (A) (A) (A) (A) (A) (A) (A) (A) (A) (A)
                 (A) (A) (A) (A) (A) (A) (A) (A) (A) (A) (A) (A)
                 (A) (A) (A)
       Virtual   (A) (A) (A) (A) (A) (A) (A) (A) (A) (A) (A) (A)
                 (A) (A) (A) (A) (A) (A) (A) (A) (A) (A) (A) (A)
                 (A) (A) (A) (A) (A) (A) (A) (A) (A) (A) (A) (A)
                 (A) (A) (A) (A) (A) (A) (A) (A) (A) (A) (A) (A)
                 (A) (A) (A) (A) (A) (A) (A) (A) (A) (A) (A) (A)
                 (A) (A) (A) (A) (A) (A) (A) (A) (A) (A) (A) (A)
                 (A) (A) (A) (A) (A) (A) (A) (A) (A) (A) (A) (A)
                 (A) (A) (A) (A) (A) (A) (A) (A) (A) (A) (A) (A)
                 (A) (A) (A) (A) (A) (A) (A) (A) (A) (A) (A) (A)
                 (A) (A) (A) (A) (A) (A) (A) (A) (A) (A) (A) (A)
                 (A) (A) (A) (A) (A) (A) (A) (A) (A) (A) (A) (A)
                 (A) (A) (A) (A) (A) (A) (A) (A) (A) (A) (A) (A)
                 (A) (A) (A) (A) (A) (A) (A) (A) (A) (A) (A) (A)
                 (A) (A) (A) (A) (A) (A) (A) (A) (A) (A) (A) (A)
                 (A) (A) (A) (A) (A) (A) (A) (A) (A) (A) (A)
 Harris functional with IExCor= 4639 diagonalized for initial guess.
 ExpMin= 2.07D-02 ExpMax= 9.34D+04 ExpMxC= 3.17D+03 IAcc=3 IRadAn=         0 AccDes= 0.00D+00
 HarFok:  IExCor= 4639 AccDes= 0.00D+00 IRadAn=         0 IDoV= 1
 ScaDFX=  1.000000  1.000000  1.000000  1.000000
 FoFCou: FMM=F IPFlag=           0 FMFlag=      100000 FMFlg1=           0
         NFxFlg=           0 DoJE=T BraDBF=F KetDBF=T FulRan=T
         Omega=  0.000000  0.000000  1.000000  0.000000  0.000000 ICntrl=     500 IOpCl=  0
         NMat0=    1 NMatS0=    1 NMatT0=    0 NMatD0=    1 NMtDS0=    0 NMtDT0=    0
         I1Cent=           4 NGrid=           0.
 Petite list used in FoFCou.
 Requested convergence on RMS density matrix=1.00D-08 within 128 cycles.
 Requested convergence on MAX density matrix=1.00D-06.
 Requested convergence on             energy=1.00D-06.
 No special actions if energy rises.
 FoFJK:  IHMeth= 1 ICntrl=     0 DoSepK=T KAlg= 1 I1Cent= 0 FoldK=F
 FoFJK:  IHMeth= 1 ICntrl=     0 DoSepK=T KAlg= 1 I1Cent= 0 FoldK=F
 FoFJK:  IHMeth= 1 ICntrl=     0 DoSepK=T KAlg= 1 I1Cent= 0 FoldK=F
 FoFJK:  IHMeth= 1 ICntrl=     0 DoSepK=T KAlg= 1 I1Cent= 0 FoldK=F
 FoFJK:  IHMeth= 1 ICntrl=     0 DoSepK=T KAlg= 1 I1Cent= 0 FoldK=F
 FoFJK:  IHMeth= 1 ICntrl=     0 DoSepK=T KAlg= 1 I1Cent= 0 FoldK=F
 FoFJK:  IHMeth= 1 ICntrl=     0 DoSepK=T KAlg= 1 I1Cent= 0 FoldK=F
 FoFJK:  IHMeth= 1 ICntrl=     0 DoSepK=T KAlg= 1 I1Cent= 0 FoldK=F
 FoFJK:  IHMeth= 1 ICntrl=     0 DoSepK=T KAlg= 1 I1Cent= 0 FoldK=F
 FoFJK:  IHMeth= 1 ICntrl=     0 DoSepK=T KAlg= 1 I1Cent= 0 FoldK=F
 SCF Done:  E(RwB97XD) =  -587.857457299     A.U. after   10 cycles
             Convg  =    0.4489D-08             -V/T =  2.0023
 Calling FoFJK, ICntrl=      2127 FMM=F ISym2X=0 I1Cent= 0 IOpClX= 0 NMat=1 NMatS=1 NMatT=0.
 FoFJK:  IHMeth= 1 ICntrl=  2127 DoSepK=T KAlg= 1 I1Cent= 0 FoldK=F
 ***** Axes restored to original set *****
 -------------------------------------------------------------------
 Center     Atomic                   Forces (Hartrees/Bohr)
 Number     Number              X              Y              Z
 -------------------------------------------------------------------
      1        6          -0.000659124   -0.000306248   -0.000087120
      2        6           0.000282099   -0.000304424   -0.000001510
      3        1           0.000041665   -0.000001075   -0.000031259
      4        1          -0.000041519    0.000033859   -0.000002446
      5        7           0.000684539    0.000357947    0.000151368
      6        1           0.000055957    0.000371571   -0.000324020
      7        1           0.000244689    0.000141961   -0.000110877
      8        1          -0.000311324    0.000441170   -0.000597878
      9        1          -0.000209530    0.000272870   -0.000582924
     10        1          -0.000563079    0.000387243    0.000731874
     11        1          -0.000376252    0.000248691    0.000583085
     12        1          -0.000493076   -0.000882869   -0.000408663
     13        1          -0.000521328   -0.000787196    0.000066493
     14        1          -0.000035971    0.000095576   -0.000003742
     15       16           0.000052098    0.000406845    0.000051354
     16        6          -0.000249920   -0.000411607    0.000123233
     17        4           0.002100076   -0.000064314    0.000443032
 -------------------------------------------------------------------
 Cartesian Forces:  Max     0.002100076 RMS     0.000473817

 GradGradGradGradGradGradGradGradGradGradGradGradGradGradGradGradGradGrad
 Berny optimization.
 Using GEDIIS/GDIIS optimizer.
 Internal  Forces:  Max     0.000961618 RMS     0.000209503
 Search for a local minimum.
 Step number   2 out of a maximum of  102
 All quantities printed in internal units (Hartrees-Bohrs-Radians)
 Mixed Optimization -- En-DIIS/RFO-DIIS
 Swaping is turned off.
 Update second derivatives using D2CorX and points    1    2
 DE= -1.34D-04 DEPred=-8.82D-05 R= 1.52D+00
 SS=  1.41D+00  RLast= 4.75D-02 DXNew= 5.0454D-01 1.4262D-01
 Trust test= 1.52D+00 RLast= 4.75D-02 DXMaxT set to 3.00D-01
     Eigenvalues ---    0.00322   0.00798   0.01011   0.01633   0.01968
     Eigenvalues ---    0.02102   0.02310   0.02333   0.02345   0.02449
     Eigenvalues ---    0.02595   0.02669   0.02822   0.02867   0.03829
     Eigenvalues ---    0.06199   0.06753   0.07325   0.07438   0.07794
     Eigenvalues ---    0.08117   0.08262   0.09089   0.10489   0.13928
     Eigenvalues ---    0.14570   0.15990   0.16000   0.16077   0.22478
     Eigenvalues ---    0.23403   0.24989   0.25243   0.26737   0.28949
     Eigenvalues ---    0.29352   0.30682   0.32936   0.35775   0.35851
     Eigenvalues ---    0.36260   0.38042   0.44334   0.52311   0.58998
     Eigenvalues --- 1000.000001000.000001000.000001000.000001000.00000
     Eigenvalues --- 1000.000001000.000001000.000001000.000001000.00000
     Eigenvalues --- 1000.000001000.000001000.000001000.000001000.00000
     Eigenvalues --- 1000.000001000.000001000.000001000.000001000.00000
     Eigenvalues --- 1000.000001000.000001000.000001000.000001000.00000
     Eigenvalues --- 1000.000001000.000001000.000001000.000001000.00000
     Eigenvalues --- 1000.000001000.000001000.000001000.000001000.00000
     Eigenvalues --- 1000.000001000.000001000.000001000.000001000.00000
     Eigenvalues --- 1000.000001000.000001000.000001000.000001000.00000
     Eigenvalues --- 1000.000001000.000001000.000001000.000001000.00000
     Eigenvalues --- 1000.000001000.000001000.000001000.000001000.00000
     Eigenvalues --- 1000.000001000.000001000.000001000.000001000.00000
     Eigenvalues --- 1000.000001000.000001000.000001000.000001000.00000
     Eigenvalues --- 1000.000001000.000001000.000001000.000001000.00000
     Eigenvalues --- 1000.000001000.000001000.000001000.000001000.00000
 En-DIIS/RFO-DIIS IScMMF=        0 using points:     2    1
 RFO step:  Lambda=-2.81382257D-05.
 DIIS coeffs:      2.07786     -1.07786
 Iteration  1 RMS(Cart)=  0.01103370 RMS(Int)=  0.00011719
 Iteration  2 RMS(Cart)=  0.00007458 RMS(Int)=  0.00002443
 Iteration  3 RMS(Cart)=  0.00000000 RMS(Int)=  0.00002443
 Variable       Old X    -DE/DX   Delta X   Delta X   Delta X     New X
                                  (DIIS)     (GDIIS)  (Total)
    R1        2.54896   0.00019   0.00485  -0.00234   0.00251   2.55146
    R2        2.04479  -0.00003   0.00118  -0.00092   0.00026   2.04505
    R3        2.64142  -0.00055  -0.00193  -0.00133  -0.00327   2.63816
    R4        2.04367  -0.00001   0.00071  -0.00052   0.00019   2.04385
    R5        3.25123  -0.00025   0.00034  -0.00173  -0.00140   3.24983
    R6        2.53883   0.00002   0.00145  -0.00085   0.00059   2.53942
    R7        3.01313   0.00011   0.00761  -0.00384   0.00377   3.01690
    R8        1.41802  -0.00002  -0.00327   0.00158  -0.00164   1.41638
    R9        5.25042  -0.00021  -0.00841  -0.01178  -0.02017   5.23024
   R10        4.16547  -0.00019  -0.00685  -0.00913  -0.01596   4.14950
   R11        5.38976  -0.00004   0.00178  -0.00222  -0.00045   5.38931
   R12        4.15266  -0.00008  -0.00298  -0.00220  -0.00519   4.14747
   R13        1.45951  -0.00009  -0.00445   0.00202  -0.00247   1.45704
   R14        3.20377   0.00079   0.01758   0.01070   0.02828   3.23205
   R15        3.25531   0.00067   0.01547   0.01012   0.02560   3.28090
   R16        1.45905  -0.00009  -0.00429   0.00198  -0.00233   1.45672
   R17        3.17265   0.00072   0.01179   0.00985   0.02159   3.19424
   R18        3.21624   0.00081   0.01625   0.00973   0.02601   3.24225
   R19        1.46452  -0.00024  -0.00354   0.00138  -0.00212   1.46240
   R20        3.16761   0.00054   0.00913   0.00417   0.01326   3.18087
   R21        3.15069   0.00096   0.01732   0.01252   0.02982   3.18052
   R22        2.04665  -0.00007   0.00153  -0.00134   0.00019   2.04684
   R23        3.16240   0.00014   0.00296  -0.00102   0.00194   3.16434
    A1        2.19764  -0.00002   0.00138  -0.00114   0.00025   2.19789
    A2        1.97757  -0.00003  -0.00046  -0.00016  -0.00062   1.97695
    A3        2.10798   0.00005  -0.00093   0.00130   0.00037   2.10835
    A4        2.23123  -0.00004  -0.00020  -0.00036  -0.00056   2.23066
    A5        1.93505   0.00000  -0.00064   0.00040  -0.00025   1.93481
    A6        2.11691   0.00004   0.00084  -0.00003   0.00081   2.11771
    A7        1.93971   0.00021   0.00189   0.00049   0.00238   1.94209
    A8        2.15413  -0.00010  -0.00103  -0.00010  -0.00113   2.15300
    A9        2.18911  -0.00011  -0.00083  -0.00035  -0.00119   2.18792
   A10        1.01087   0.00036   0.00573   0.00529   0.01104   1.02191
   A11        0.98876   0.00032   0.00371   0.00317   0.00685   0.99560
   A12        2.05122  -0.00003   0.00081   0.00071   0.00149   2.05271
   A13        1.44539  -0.00026  -0.00430  -0.00542  -0.00979   1.43560
   A14        1.83043  -0.00001   0.00134   0.00165   0.00301   1.83343
   A15        1.53395  -0.00022  -0.00367  -0.00348  -0.00719   1.52676
   A16        3.03876   0.00006  -0.00011  -0.00082  -0.00091   3.03785
   A17        1.80331  -0.00037  -0.00673  -0.00736  -0.01414   1.78917
   A18        2.88678  -0.00005  -0.00027   0.00007  -0.00024   2.88654
   A19        1.98454  -0.00033  -0.00383  -0.00417  -0.00807   1.97647
   A20        1.58405   0.00002   0.00070   0.00008   0.00078   1.58483
   A21        2.16093   0.00002  -0.00130   0.00069  -0.00061   2.16032
   A22        1.98839  -0.00020  -0.00150  -0.00079  -0.00229   1.98610
   A23        2.13386   0.00017   0.00280   0.00010   0.00290   2.13676
   A24        1.79005   0.00020   0.00403   0.00252   0.00652   1.79657
   A25        2.24213   0.00007   0.00043   0.00183   0.00227   2.24440
   A26        1.81351  -0.00003   0.00075  -0.00043   0.00032   1.81383
   A27        2.23344  -0.00013  -0.00140   0.00002  -0.00141   2.23203
   A28        1.98072  -0.00006  -0.00163  -0.00223  -0.00384   1.97688
   A29        2.10670  -0.00004  -0.00033   0.00076   0.00038   2.10708
   A30        2.09403  -0.00014  -0.00204  -0.00104  -0.00305   2.09098
   A31        1.74359  -0.00003   0.00082   0.00053   0.00136   1.74495
   A32        2.12282  -0.00013  -0.00136   0.00040  -0.00094   2.12188
   A33        1.66223   0.00006   0.00170   0.00084   0.00254   1.66477
   A34        1.82684  -0.00001   0.00042   0.00013   0.00056   1.82740
   A35        1.39612   0.00013   0.00420   0.00144   0.00562   1.40174
   A36        1.84894  -0.00007   0.00022   0.00027   0.00047   1.84941
   A37        1.45632   0.00005   0.00175  -0.00047   0.00130   1.45763
   A38        1.64982   0.00014  -0.00002   0.00017   0.00010   1.64992
   A39        2.00245  -0.00004  -0.00350  -0.00211  -0.00562   1.99683
   A40        1.61439   0.00010  -0.00105  -0.00120  -0.00228   1.61211
   A41        1.79734   0.00003  -0.00221  -0.00327  -0.00549   1.79185
    D1        0.00231   0.00000   0.00036   0.00005   0.00041   0.00272
    D2       -3.14142   0.00002  -0.00014   0.00238   0.00224  -3.13918
    D3       -3.13952  -0.00002   0.00060  -0.00158  -0.00099  -3.14051
    D4       -0.00007   0.00001   0.00009   0.00075   0.00084   0.00078
    D5       -0.00144   0.00002  -0.00097   0.00199   0.00102  -0.00041
    D6       -3.12083  -0.00002  -0.00252   0.00016  -0.00236  -3.12319
    D7        3.13993   0.00000  -0.00075   0.00046  -0.00029   3.13964
    D8        0.02054  -0.00003  -0.00229  -0.00138  -0.00367   0.01686
    D9        0.00116  -0.00002   0.00060  -0.00249  -0.00189  -0.00073
   D10        3.14078   0.00000   0.00014  -0.00034  -0.00020   3.14058
   D11       -3.14090   0.00000  -0.00200   0.00136  -0.00063  -3.14153
   D12        0.00236  -0.00003   0.00145  -0.00397  -0.00252  -0.00016
   D13       -0.02205   0.00003  -0.00042   0.00325   0.00283  -0.01921
   D14        3.12121   0.00000   0.00303  -0.00208   0.00095   3.12216
   D15        1.24563  -0.00004  -0.00061  -0.00061  -0.00122   1.24441
   D16        1.18223   0.00004   0.00128   0.00074   0.00202   1.18425
   D17       -0.94706   0.00003  -0.00051  -0.00042  -0.00097  -0.94803
   D18       -0.73378  -0.00012  -0.00475  -0.00375  -0.00848  -0.74226
   D19       -2.71540  -0.00010  -0.00031   0.00036   0.00006  -2.71534
   D20        3.05995   0.00015   0.00403   0.00239   0.00642   3.06637
   D21       -1.87055  -0.00008  -0.00241  -0.00272  -0.00513  -1.87568
   D22       -1.93395   0.00000  -0.00052  -0.00137  -0.00189  -1.93584
   D23        2.21995  -0.00001  -0.00231  -0.00253  -0.00489   2.21506
   D24        2.43323  -0.00016  -0.00655  -0.00586  -0.01239   2.42084
   D25        0.45160  -0.00014  -0.00211  -0.00176  -0.00385   0.44775
   D26       -0.05623   0.00011   0.00222   0.00027   0.00250  -0.05372
   D27        0.75584  -0.00008  -0.00105  -0.00792  -0.00899   0.74685
   D28       -0.51774  -0.00009  -0.00391  -0.00487  -0.00881  -0.52656
   D29        1.96529   0.00000   0.00592  -0.00797  -0.00204   1.96325
   D30        0.52986   0.00005   0.00326   0.00464   0.00792   0.53778
   D31        1.04898  -0.00003  -0.00081  -0.00585  -0.00668   1.04229
   D32       -0.30336  -0.00010  -0.00465  -0.00501  -0.00970  -0.31306
   D33       -1.92512   0.00003  -0.01152  -0.00493  -0.01645  -1.94157
   D34        0.33266   0.00008   0.00480   0.00547   0.01028   0.34294
   D35       -1.43075   0.00014   0.00552   0.00794   0.01343  -1.41732
   D36        2.86848  -0.00002   0.00092   0.00560   0.00652   2.87501
   D37        2.46737   0.00008   0.00424   0.00592   0.01010   2.47747
   D38        0.58617   0.00011   0.00395   0.00556   0.00949   0.59565
   D39        0.90598   0.00003   0.00297   0.00693   0.00983   0.91581
   D40       -1.68255   0.00015   0.00633   0.00802   0.01437  -1.66818
   D41        2.61668  -0.00001   0.00174   0.00569   0.00747   2.62415
   D42        2.21556   0.00009   0.00506   0.00600   0.01105   2.22661
   D43        0.33436   0.00012   0.00477   0.00564   0.01043   0.34479
   D44        0.65418   0.00004   0.00378   0.00702   0.01077   0.66495
   D45        1.08186  -0.00003  -0.00342  -0.00684  -0.01024   1.07162
   D46       -3.05278   0.00008  -0.00032  -0.00498  -0.00528  -3.05807
   D47       -2.65248  -0.00008  -0.00436  -0.00619  -0.01051  -2.66299
   D48       -0.79079  -0.00006  -0.00389  -0.00596  -0.00980  -0.80059
   D49       -1.25094   0.00008  -0.00029  -0.00504  -0.00531  -1.25625
   D50        1.38916  -0.00009  -0.00633  -0.00845  -0.01480   1.37436
   D51       -2.74548   0.00002  -0.00323  -0.00659  -0.00985  -2.75533
   D52       -2.34518  -0.00013  -0.00727  -0.00780  -0.01507  -2.36025
   D53       -0.48348  -0.00011  -0.00680  -0.00756  -0.01437  -0.49785
   D54       -0.94364   0.00003  -0.00320  -0.00664  -0.00987  -0.95351
   D55       -0.00205   0.00003  -0.00120   0.00375   0.00255   0.00051
   D56        3.14118   0.00000   0.00219  -0.00149   0.00070  -3.14130
         Item               Value     Threshold  Converged?
 Maximum Force            0.000962     0.000450     NO 
 RMS     Force            0.000210     0.000300     YES
 Maximum Displacement     0.057773     0.001800     NO 
 RMS     Displacement     0.011044     0.001200     NO 
 Predicted change in Energy=-8.493880D-05
 GradGradGradGradGradGradGradGradGradGradGradGradGradGradGradGradGradGrad

                          Input orientation:                          
 ---------------------------------------------------------------------
 Center     Atomic      Atomic             Coordinates (Angstroms)
 Number     Number       Type             X           Y           Z
 ---------------------------------------------------------------------
      1          6           0        0.046023    1.277682    0.205841
      2          6           0        1.371388    1.035414    0.293546
      3          1           0       -0.437101    2.232386    0.367926
      4          1           0        2.158718    1.735803    0.537148
      5          7           0       -0.700402    0.146626   -0.129607
      6          1           0       -2.500445   -1.765558    2.020131
      7          1           0       -3.245480   -1.842529    2.047884
      8          1           0       -2.483627    1.022782   -1.787592
      9          1           0       -3.216925    0.941500   -1.563636
     10          1           0       -2.861346    0.827988    1.123706
     11          1           0       -3.454097    0.962950    0.649719
     12          1           0       -3.002944   -1.336692   -0.073957
     13          1           0       -3.106615   -1.212005   -0.830648
     14          1           0       -0.279613   -1.913389   -0.550003
     15         16           0        1.715638   -0.615492   -0.043345
     16          6           0        0.089102   -0.929185   -0.288118
     17          4           0       -2.285267    0.165737   -0.320847
 ---------------------------------------------------------------------
                    Distance matrix (angstroms):
                    1          2          3          4          5
     1  C    0.000000
     2  C    1.350177   0.000000
     3  H    1.082192   2.170001   0.000000
     4  H    2.187034   1.081561   2.648302   0.000000
     5  N    1.396053   2.293756   2.160384   3.338354   0.000000
     6  H    4.363194   5.081106   4.792779   6.013864   3.393815
     7  H    4.895185   5.716269   5.226298   6.655234   3.895592
     8  H    3.230771   4.380917   3.208998   5.240628   2.587751
     9  H    3.727050   4.950815   3.622809   5.825955   3.003524
    10  H    3.081801   4.318359   2.901810   5.135096   2.589348
    11  H    3.542164   4.839154   3.285291   5.666891   2.975999
    12  H    4.026095   4.989662   4.417820   6.037916   2.739531
    13  H    4.148733   5.134902   4.519593   6.187420   2.850825
    14  H    3.295493   3.483220   4.249099   4.521499   2.144169
    15  S    2.536496   1.719736   3.593582   2.462088   2.534860
    16  C    2.261882   2.417072   3.271515   3.473691   1.343805
    17  Be   2.636046   3.808535   2.856775   4.790643   1.596476
                    6          7          8          9         10
     6  H    0.000000
     7  H    0.749515   0.000000
     8  H    4.719521   4.847815   0.000000
     9  H    4.548065   4.560122   0.771032   0.000000
    10  H    2.767726   2.851899   2.942154   2.713140   0.000000
    11  H    3.198787   3.141513   2.624096   2.226129   0.770865
    12  H    2.195822   2.194745   2.961985   2.730401   2.477960
    13  H    2.966615   2.950050   2.509608   2.277504   2.835706
    14  H    3.399932   3.943401   3.874326   4.219673   4.120897
    15  S    4.832799   5.521916   4.833235   5.391260   4.939071
    16  C    3.568374   4.172595   3.560552   4.007022   3.712956
    17  Be   3.042430   3.250543   1.710326   1.736180   1.690318
                   11         12         13         14         15
    11  H    0.000000
    12  H    2.452672   0.000000
    13  H    2.653801   0.773871   0.000000
    14  H    4.448596   2.824133   2.926199   0.000000
    15  S    5.449585   4.773477   4.922377   2.433571   0.000000
    16  C    4.124800   3.126128   3.253757   1.083140   1.674496
    17  Be   1.715725   1.683243   1.683058   2.897917   4.085898
                   16         17
    16  C    0.000000
    17  Be   2.614871   0.000000
 Stoichiometry    C3H11BeNS(2+)
 Framework group  C1[X(C3H11BeNS)]
 Deg. of freedom    45
 Full point group                 C1      NOp   1
 Largest Abelian subgroup         C1      NOp   1
 Largest concise Abelian subgroup C1      NOp   1
                         Standard orientation:                         
 ---------------------------------------------------------------------
 Center     Atomic      Atomic             Coordinates (Angstroms)
 Number     Number       Type             X           Y           Z
 ---------------------------------------------------------------------
      1          6           0        0.040670    1.281039    0.202715
      2          6           0        1.367804    1.045253    0.280797
      3          1           0       -0.446124    2.232922    0.370318
      4          1           0        2.153254    1.749040    0.520642
      5          7           0       -0.702343    0.147007   -0.130254
      6          1           0       -2.477999   -1.779146    2.027282
      7          1           0       -3.222430   -1.859934    2.059947
      8          1           0       -2.501255    1.017962   -1.773972
      9          1           0       -3.232585    0.932472   -1.545199
     10          1           0       -2.858052    0.814596    1.139379
     11          1           0       -3.454705    0.947655    0.669769
     12          1           0       -2.996969   -1.348020   -0.062320
     13          1           0       -3.106442   -1.222124   -0.817993
     14          1           0       -0.274098   -1.909892   -0.558306
[...]
 RMS     Displacement     0.000621     0.001200     YES
 Predicted change in Energy=-5.030584D-08
 GradGradGradGradGradGradGradGradGradGradGradGradGradGradGradGradGradGrad

 1|1|UNPC-LAPTOP-5JS4LN2H|Freq|RwB97XD|6-311+G(d,p)|C3H11Be1N1S1(2+)|SO
 UMYO|30-Sep-2021|0||#N Geom=AllCheck Guess=TCheck SCRF=Check GenChk Rw
 B97XD/6-311+G(d,p) Freq||Thiazole-Be(2+)@4H2||2,1|C,-0.007788418,1.194
 530475,0.3236193738|C,1.3190695924,0.9589800864,0.3931337006|H,-0.5011
 117306,2.1231209533,0.5782341226|H,2.0980075827,1.6402672968,0.7073032
 441|N,-0.7408546845,0.0934300645,-0.124868381|H,-2.166072455,-1.361107
 1463,2.0077000824|H,-2.8971178243,-1.4810574096,2.1283727406|H,-2.4818
 620661,0.9950107435,-1.7910342784|H,-3.2237798232,0.8826657496,-1.6110
 307298|H,-3.0082761871,0.7188269228,1.1034586123|H,-3.472606711,1.0157
 595282,0.5625593526|H,-3.0504770965,-1.4142756158,-0.1652950123|H,-3.1
 901853747,-1.2328036616,-0.9031457652|H,-0.2923042779,-1.9100147246,-0
 .743900704|S,1.68308934,-0.6476110373,-0.1010554621|C,0.0619219241,-0.
 9519743154,-0.3841656943|Be,-2.3226447901,0.1102690905,-0.3217392019||
 Version=IA32W-G09RevA.02|State=1-A|HF=-587.8580941|RMSD=2.754e-009|RMS
 F=1.069e-005|ZeroPoint=0.1192018|Thermal=0.1306768|Dipole=-5.3023316,0
 .3481883,-0.7084411|DipoleDeriv=0.1260874,-0.1327243,-0.0284402,0.2188
 578,0.0406653,0.040218,0.0952327,0.0128098,-0.0306422,-0.0857741,0.145
 8428,0.0572134,-0.103551,0.0111107,0.0336666,-0.0370351,0.0619491,-0.0
 978906,0.0624786,0.0444346,0.0002884,0.0064693,0.1588599,-0.0094667,-0
 .0113747,-0.0060785,0.1821938,0.2120938,0.0811713,0.0273743,0.0578686,
 0.1640884,-0.0074191,0.019951,-0.0038482,0.2025718,-1.5033129,0.171495
 4,-0.065864,0.3120694,-0.3503745,0.0206016,-0.0258523,0.0043303,-0.278
 1941,-0.0111411,-0.0734912,0.1261356,-0.0474491,-0.0501511,0.0474809,0
 .0797372,0.0423158,-0.0865422,0.0632656,0.0839917,-0.146974,0.0383637,
 0.0461876,-0.004149,-0.0673816,-0.0003967,0.0260591,0.015205,0.1334313
 ,-0.2225619,0.0503715,0.0781181,-0.0141514,-0.0760306,-0.0181354,0.100
 6553,0.1822127,-0.1071498,0.1790745,-0.0107456,0.0255785,0.0967216,0.0
 188679,0.093939,-0.0718617,-0.0320247,0.088702,0.1043748,0.108938,0.02
 68128,-0.0838253,-0.017709,-0.0116519,0.2432725,0.1742926,-0.0795315,-
 0.0188909,-0.0736986,0.1225213,-0.0041723,0.1128147,-0.0724029,-0.1390
 623,0.0429461,-0.050364,-0.0485308,-0.0257672,0.0804311,-0.1159865,-0.
 1337914,-0.2176266,0.137848,0.0958999,-0.0027008,0.0706659,-0.0543475,
 -0.057782,0.084116,0.1430635,0.1879085,0.1274449,0.0837107,-0.0330188,
 -0.0234269,0.0110656,0.1960888,0.0117486,-0.0092879,0.0058748,0.178112
 7,0.1168418,-0.1302575,-0.0710302,-0.1164917,0.4164247,0.0003454,-0.07
 19611,-0.0046646,0.3763688,0.8059978,-0.1197441,0.0367392,-0.4007878,-
 0.0371042,-0.0328795,-0.0412792,-0.0166232,-0.0454929,1.6512205,-0.020
 087,0.0238529,0.0288347,1.1285246,-0.0628488,0.0220359,-0.0576994,1.17
 5159|Polar=91.7803921,-1.764397,69.0291246,3.2915558,3.9703311,54.0004
 284|PG=C01 [X(C3H11Be1N1S1)]|NImag=0||0.74389959,-0.16228456,0.6699316
 9,0.01408644,0.16272016,0.18287793,-0.43631987,0.08034357,-0.01547140,
 0.79868409,0.05145793,-0.11299778,-0.01265065,0.09836727,0.47975266,-0
 .02510300,-0.00935570,-0.06398928,0.11127635,0.13846404,0.15602420,-0.
 12695946,0.12593614,0.03171243,-0.00456854,0.02291004,0.00647111,0.124
 94380,0.11983542,-0.27156705,-0.06654226,-0.00141305,0.00289159,-0.000
 97375,-0.12379425,0.28310719,0.02976047,-0.06591193,-0.05017705,-0.001
 64797,0.00172702,0.00591319,-0.03034153,0.07288867,0.04383009,-0.00691
 379,-0.01747113,-0.00668557,-0.21594962,-0.13973502,-0.06769256,0.0004
 1925,0.00007851,0.00047087,0.21673224,0.00682596,0.00990713,0.00388856
 ,-0.14245278,-0.17236192,-0.06375960,-0.00048053,-0.00020113,0.0010683
 5,0.14435663,0.17401709,0.00147548,0.00113646,0.00112426,-0.06859642,-
 0.06343064,-0.05809379,0.00028515,0.00112913,-0.00315887,0.07002407,0.
 06661374,0.05305632,-0.14387458,-0.05127604,-0.02609760,-0.06567048,-0
 .00840946,-0.01108064,0.01247700,0.00904552,0.00492347,-0.00410858,0.0
 0461738,0.00029328,0.63189680,-0.05641476,-0.19169067,-0.04994590,-0.0
 5919495,0.00247104,-0.00874487,-0.02313186,-0.01374407,-0.00565422,-0.
 00002062,0.00298704,-0.00146430,-0.06130734,0.51453010,-0.02755794,-0.
 04903602,-0.08036336,-0.02824014,-0.00271649,0.00430663,-0.00579277,-0
 .00217290,-0.00567733,-0.00131267,-0.00094025,0.00686255,0.04118369,0.
 12590399,0.16074665,0.00050986,0.00056913,0.00051845,-0.00048473,0.000
 17116,-0.00010073,0.00001455,0.00000614,0.00001601,0.00000141,0.000034
 29,-0.00000935,-0.00249578,-0.00111579,0.00163295,0.34327659,0.0000210
 2,0.00008109,0.00012179,-0.00012377,0.00003228,-0.00005225,0.00001761,
 -0.00002325,0.00003907,0.00000888,0.00001287,-0.00001587,-0.00121564,-
 0.00055836,0.00101007,0.05514571,0.01353171,-0.00018832,-0.00029563,-0
 .00023098,0.00026987,-0.00014381,-0.00005242,-0.00000435,-0.00001641,-
 0.00000756,-0.00000179,-0.00002730,0.00000786,0.00179462,0.00098012,-0
 .00126318,-0.05538351,-0.01034061,0.01438540,-0.00020155,-0.00032163,-
 0.00020439,0.00024034,-0.00004691,-0.00000205,-0.00002357,-0.00001968,
 -0.00002494,-0.00000667,-0.00002065,-0.00001287,0.00109985,0.00022824,
 -0.00014195,-0.34159427,-0.05532713,0.05562565,0.34186553,0.00022127,0
 .00013320,0.00007826,-0.00008307,0.00006915,0.00000164,0.00000993,0.00
 001533,-0.00000532,-0.00001049,-0.00000121,0.00001044,-0.00025957,-0.0
 0008576,0.00022849,-0.05538018,-0.01234761,0.00929698,0.05546442,0.013
 19693,-0.00008510,-0.00006195,-0.00015920,0.00013362,-0.00002361,0.000
 11526,0.00000281,0.00003053,-0.00002689,0.00000667,-0.00000050,0.00000
 109,0.00051618,0.00012185,-0.00022314,0.05574814,0.00923630,-0.0116439
 6,-0.05608744,-0.00979559,0.01338443,0.00067332,0.00085555,0.00047344,
 -0.00064340,0.00027656,0.00003356,0.00011290,0.00001166,-0.00017639,0.
 00000763,0.00003193,-0.00002058,-0.00736355,0.00301242,-0.00375958,0.0
 0012908,0.00010251,-0.00016332,-0.00027293,-0.00000861,-0.00003807,0.2
 9367032,-0.00008721,0.00043905,0.00004088,-0.00013066,-0.00011223,-0.0
 0000384,0.00003276,-0.00002019,-0.00021175,-0.00001992,0.00000805,0.00
 003470,0.00028160,0.00017074,-0.00008946,-0.00004155,0.00003060,0.0000
 5917,0.00008595,0.00002420,0.00003961,0.04305353,0.01819460,-0.0002392
 5,-0.00021239,0.00004722,0.00014915,-0.00000876,-0.00002611,0.00000553
 ,-0.00003573,-0.00005629,-0.00000217,-0.00002081,-0.00000463,-0.000560
 39,-0.00022737,-0.00014283,0.00005957,0.00006677,-0.00002441,-0.000113
 52,0.00002674,-0.00000416,-0.06887485,-0.02244347,0.04002299,0.0001746
 2,0.00008423,-0.00021521,-0.00005292,0.00016195,0.00005154,-0.00006681
 ,-0.00011521,-0.00001332,-0.00002858,-0.00004599,0.00003464,0.00161591
 ,0.00078329,-0.00089643,-0.00024479,-0.00017220,0.00026185,0.00041892,
 -0.00002925,0.00008992,-0.29024751,-0.04089244,0.06543418,0.30074841,-
 0.00026289,-0.00042542,-0.00004734,0.00043680,-0.00012007,-0.00006691,
 -0.00000787,0.00001365,0.00014734,-0.00000140,-0.00001307,-0.00001514,
 0.00190792,0.00008942,0.00092127,-0.00007178,-0.00005080,0.00009200,0.
 00014536,-0.00001053,0.00003044,-0.04404012,-0.00965128,0.01385216,0.0
 3877014,0.01705045,0.00053736,0.00050646,0.00044408,-0.00030633,0.0002
 2662,-0.00001609,0.00001379,0.00003023,-0.00008256,0.00000626,0.000023
 89,-0.00001771,-0.00294683,0.00129081,-0.00049032,0.00012629,0.0000968
 8,-0.00012374,-0.00022722,0.00002125,-0.00005437,0.07080468,0.01395161
 ,-0.02253519,-0.06257576,-0.01871774,0.03497140,0.00016135,0.00090283,
 -0.00009343,-0.00027098,-0.00002147,0.00011342,-0.00011379,-0.00012560
 ,0.00025621,-0.00001656,0.00001988,0.00001318,-0.00463908,0.00265547,0
 .00200022,-0.00015519,0.00061705,-0.00038573,-0.00016731,-0.00004434,-
 0.00026593,0.00045260,0.00037678,0.00068568,-0.00089931,0.00015214,0.0
 0068445,0.12211125,-0.00048274,-0.00022898,0.00010816,0.00014498,0.000
 01520,-0.00008501,-0.00013305,-0.00014496,0.00014800,-0.00002614,-0.00
 001220,-0.00004135,0.00210702,-0.00102509,-0.00047796,0.00051601,0.000
 27367,0.00024037,-0.00035749,-0.00056162,0.00056567,0.00015936,0.00003
 257,-0.00014073,0.00004608,-0.00011591,0.00014747,-0.07722829,0.053730
 34,0.00044731,0.00052177,0.00018094,-0.00031167,0.00009823,0.00001372,
 0.00004149,0.00001981,0.00021579,0.00000344,0.00003665,0.00001691,-0.0
 0209584,0.00149919,0.00089813,-0.00019263,0.00015776,-0.00047844,-0.00
 012583,0.00062955,-0.00056852,-0.00053674,-0.00020164,0.00020478,0.000
 75746,-0.00016286,-0.00104596,0.12169267,-0.07363861,0.17752647,0.0002
 3954,0.00015712,0.00000791,0.00001027,0.00006235,0.00012160,-0.0001243
 4,-0.00003614,-0.00005259,-0.00001269,-0.00002190,-0.00001766,0.000150
 26,0.00131807,0.00125736,-0.00006200,-0.00020536,0.00019749,0.00032313
 ,-0.00016702,0.00005206,-0.00069940,-0.00018984,-0.00071671,0.00179574
 ,-0.00002735,-0.00074637,-0.11590742,0.07498370,-0.12483568,0.12856062
 ,0.00008526,0.00008368,0.00005714,0.00005451,-0.00007780,0.00005767,-0
 .00005192,0.00028146,-0.00008181,0.00001442,0.00003357,0.00000691,-0.0
 0059707,0.00079004,0.00036276,-0.00042413,-0.00053869,0.00025090,0.000
 73336,-0.00034091,0.00010434,0.00047438,0.00027313,0.00075223,-0.00087
 372,0.00039665,0.00092685,0.07464309,-0.04838728,0.07835220,-0.0817984
 7,0.05761679,-0.00043773,-0.00092360,0.00002281,0.00037162,0.00004652,
 -0.00005638,0.00005317,-0.00003021,-0.00014351,-0.00000013,-0.00004690
 ,-0.00004506,0.00302918,-0.00129642,-0.00033152,0.00056273,0.00065630,
 -0.00003431,-0.00086432,0.00027073,0.00012165,-0.00044150,-0.00070287,
 -0.00255385,0.00244896,-0.00062775,-0.00389829,-0.13128684,0.08275969,
 -0.15685654,0.12328925,-0.07731334,0.16778153,-0.00005174,0.00084630,0
 .00020252,-0.00024573,-0.00011062,-0.00010882,0.00003903,0.00004218,0.
 00000805,-0.00006641,0.00003825,0.00005397,-0.00189196,-0.00301722,-0.
 00091863,-0.00047349,0.00006865,-0.00061951,0.00033300,0.00025087,0.00
 027489,0.00000232,-0.00006172,-0.00006519,-0.00002833,-0.00011416,-0.0
 0011426,0.00013171,0.00016204,0.00024380,-0.00002574,0.00028729,-0.000
 00061,0.01938795,0.00000417,-0.00013433,-0.00006726,0.00018408,-0.0000
 5376,-0.00001038,0.00001967,0.00002452,0.00000459,-0.00000053,-0.00000
 299,-0.00001201,0.00028134,0.00009522,-0.00004206,0.00007031,-0.000247
 53,-0.00000663,0.00008981,-0.00002297,0.00036762,0.00049951,-0.0002969
 8,-0.00029118,-0.00092594,-0.00097815,0.00022765,-0.00018179,-0.000876
 84,-0.00027460,-0.00037051,-0.00083502,-0.00029926,-0.00214186,0.04534
 879,-0.00005142,0.00119426,0.00069397,-0.00053772,-0.00023297,-0.00019
 464,0.00004295,0.00006408,0.00006526,-0.00002336,0.00010041,0.00001289
 ,-0.00304221,-0.00240170,-0.00115459,-0.00101300,0.00040174,-0.0003537
 8,0.00114621,0.00045522,-0.00130284,0.00003804,-0.00057016,0.00008583,
 -0.00032690,0.00014465,-0.00005478,0.00055910,-0.00273522,0.00062809,-
 0.00106383,-0.00075294,-0.00191615,0.05320413,-0.07066103,0.28721340,-
 0.00025405,0.00066712,0.00050623,-0.00021482,-0.00021642,-0.00005852,0
 .00000380,-0.00001292,0.00002018,-0.00004578,0.00006914,-0.00005785,-0
 .00056374,-0.00261683,-0.00063698,0.00013484,0.00007016,0.00001964,0.0
 0012123,0.00006679,-0.00003971,-0.00028507,0.00015782,-0.00022303,0.00
 089366,0.00056254,-0.00005959,-0.00031115,0.00068431,-0.00001571,0.000
 59243,0.00035467,0.00073875,-0.01232535,0.00810697,-0.05272639,0.02106
 448,0.00015127,0.00048667,0.00028930,-0.00013962,-0.00000894,-0.000089
 20,0.00004164,0.00004720,0.00003708,-0.00002291,0.00003440,0.00003219,
 -0.00113652,-0.00079730,-0.00024560,-0.00044464,0.00017120,0.00053514,
 0.00075564,0.00022180,0.00014624,-0.00006971,-0.00161092,0.00033714,-0
 .00103922,-0.00251461,0.00068493,0.00033112,-0.00133952,0.00053925,-0.
 00092870,-0.00044643,-0.00096774,0.01005663,-0.02412165,0.07166360,-0.
 00177801,0.04110307,0.00000280,-0.00110767,-0.00025415,0.00038416,0.00
 025651,0.00015932,-0.00002703,-0.00006105,-0.00004358,0.00001504,-0.00
 007115,-0.00005373,0.00227611,0.00167326,0.00081328,0.00086862,-0.0000
 9721,-0.00069563,-0.00128219,-0.00025999,-0.00039248,-0.00101910,0.002
 32116,-0.00006930,0.00215375,0.00266986,-0.00073040,-0.00026013,0.0004
 7047,-0.00037888,0.00016266,-0.00002055,0.00029443,-0.05642696,0.06466
 231,-0.28432311,0.05873373,-0.06482634,0.29295936,-0.00358476,0.003238
 31,0.00014930,-0.00684723,-0.00099192,-0.00140364,0.00100081,0.0006378
 3,0.00014400,0.00120532,-0.00100215,-0.00039127,0.01196052,0.02254292,
 0.00931797,0.00008052,-0.00001513,0.00000022,-0.00006432,-0.00003335,-
 0.00004172,0.00007824,-0.00001959,-0.00000391,-0.00006313,-0.00001141,
 0.00002792,0.00005594,-0.00003015,0.00000156,-0.00003011,-0.00000354,-
 0.00004064,-0.00031248,0.00007335,0.00006612,-0.00019045,-0.00004951,0
 .00001015,0.09061646,0.00498386,0.00039878,-0.00088011,0.00061312,0.00
 225173,-0.00002515,-0.00050525,-0.00017679,-0.00064482,-0.00024488,0.0
 0047703,-0.00047018,-0.00898335,-0.01298205,-0.00410560,0.00000135,-0.
 00000853,-0.00003712,0.00001373,0.00000316,0.00002234,-0.00000862,-0.0
 0001859,-0.00004047,0.00007555,0.00002560,0.00001117,-0.00005824,0.000
 06596,-0.00005361,0.00001619,0.00000100,0.00008059,-0.00011002,0.00021
 735,-0.00018003,-0.00000750,-0.00000641,0.00023833,0.09110418,0.296687
 81,0.00071455,-0.00113606,0.00453337,-0.00078279,-0.00016718,0.0023321
 9,-0.00023708,-0.00050699,0.00137456,-0.00016112,-0.00055146,0.0016290
 2,-0.00118444,-0.00066147,-0.00387317,0.00007264,-0.00007443,-0.000105
 61,-0.00006995,0.00010328,-0.00001292,-0.00009966,0.00002148,0.0000724
 8,0.00000142,0.00005939,-0.00007293,0.00001445,-0.00005538,0.00008859,
 0.00004058,-0.00001592,-0.00005314,0.00018020,-0.00025237,0.00005931,-
 0.00015522,0.00024960,0.00018521,0.03835420,0.10171594,0.06052100,-0.0
 2605606,0.00500104,-0.00206139,-0.06081864,0.01916792,0.00357215,-0.00
 321468,-0.00000437,-0.00106154,0.00977008,-0.01395774,-0.00329267,-0.0
 7390284,0.05328099,0.00742399,-0.00034546,-0.00007016,0.00005468,0.000
 21923,-0.00012551,0.00012598,-0.00093240,-0.00018960,0.00022306,-0.000
 05410,0.00022707,-0.00055279,-0.00057268,0.00023861,-0.00056589,-0.000
 15566,-0.00010523,0.00048543,-0.00011843,0.00007397,-0.00045778,-0.000
 04789,-0.00023010,0.00034723,-0.00061672,0.00122685,0.00034764,0.38203
 462,0.06245352,-0.02521681,-0.00450274,0.03342500,-0.16200627,-0.03871
 492,0.00323366,0.00211491,-0.00103465,0.00744099,-0.01053051,-0.001838
 11,-0.00611436,-0.02160127,-0.01367505,-0.00028339,-0.00004355,0.00017
 865,0.00015288,-0.00006311,0.00008427,-0.00034389,-0.00001189,0.000008
 22,-0.00008541,0.00032632,-0.00020354,-0.00009082,-0.00001060,-0.00006
 171,0.00012406,0.00013314,0.00019193,-0.00001436,0.00013792,-0.0002253
 6,-0.00001254,-0.00001373,0.00008940,-0.01950050,0.00207030,-0.0013190
 4,-0.03698347,0.26938436,0.01688487,-0.01089277,0.00732482,0.00830309,
 -0.04038567,-0.04683839,0.00003949,-0.00134861,0.00564789,0.00387416,-
 0.00423472,-0.00348390,-0.01233924,-0.00667125,0.01355858,-0.00016815,
 -0.00005759,0.00020174,0.00006419,-0.00001882,-0.00005111,-0.00023123,
 -0.00005785,-0.00004300,0.00018599,0.00018309,-0.00009300,-0.00015722,
 0.00009183,-0.00007998,-0.00015972,-0.00004284,0.00015474,0.00000394,0
 .00008960,0.00004005,0.00002887,0.00002605,0.00005647,-0.00656785,0.00
 094319,-0.00083791,0.02561030,0.07111649,0.07088245,0.01193140,0.02204
 196,0.00748265,-0.01087688,-0.04153066,-0.01600186,-0.00467078,-0.0036
 1831,-0.00200501,-0.00073836,0.00262854,0.00056608,-0.19607563,0.12395
 460,0.02597717,0.00076793,0.00011981,-0.00005371,-0.00038775,0.0001980
 1,-0.00034416,0.00148236,0.00030718,-0.00008292,-0.00024800,-0.0008180
 7,0.00090174,0.00050728,-0.00027350,0.00037412,-0.00035066,-0.00009900
 ,-0.00085321,0.00007390,-0.00013170,0.00111987,0.00019597,0.00041620,-
 0.00087582,-0.09414655,-0.08911832,-0.03735502,-0.23090141,-0.04726621
 ,-0.03705012,0.54662920,-0.01588786,-0.08301497,-0.03269652,-0.0068195
 1,-0.03630436,-0.01528164,-0.00326288,-0.00066008,-0.00149881,0.005763
 97,-0.00457329,-0.00152444,0.12000945,-0.25713529,-0.05273800,-0.00092
 458,-0.00028723,0.00045246,0.00041403,-0.00011892,0.00024702,-0.001375
 69,-0.00036361,0.00027849,0.00009601,0.00056802,-0.00079345,-0.0011832
 6,0.00045784,-0.00098944,-0.00049542,-0.00026601,0.00115666,-0.0005435
 1,0.00017631,-0.00089758,-0.00033203,-0.00041630,0.00082338,-0.0973950
 9,-0.28766388,-0.09728888,-0.03067965,-0.05244185,-0.00725384,0.021236
 91,0.72082544,-0.00494665,-0.02823706,-0.00031794,-0.00434787,-0.01933
 937,0.00063208,-0.00187897,-0.00157929,0.00201661,0.00162220,-0.001877
 71,0.00147566,0.02432709,-0.05221495,-0.07423656,0.00014592,0.00010395
 ,-0.00008907,0.00001562,-0.00007994,-0.00004968,-0.00062646,-0.0000529
 6,0.00032420,-0.00043778,0.00005211,-0.00048455,-0.00006539,-0.0000314
 7,-0.00013069,0.00031318,-0.00006004,0.00006080,-0.00021833,0.00002117
 ,-0.00031584,-0.00011919,-0.00024651,0.00011135,-0.04010212,-0.0962977
 5,-0.06548904,-0.03164305,-0.00889456,-0.04891644,0.05680231,0.2066369
 4,0.18506352,-0.01337382,-0.00928993,-0.00431038,0.00402912,-0.0015127
 1,-0.00008792,0.00073084,-0.00051772,-0.00027597,-0.00024889,-0.000640
 27,-0.00034719,-0.15861412,-0.00095663,-0.01953627,0.00094093,0.000957
 97,-0.00142379,-0.00190287,-0.00006991,-0.00004813,0.00383549,-0.00266
 310,0.00432475,-0.01371377,0.00315309,-0.00557334,-0.00036664,-0.00051
 073,0.00511814,-0.01430396,0.00730608,0.00294590,-0.00442825,-0.005650
 87,0.00306619,-0.00876812,-0.00591356,-0.00506303,0.00085794,0.0010013
 5,0.00031960,0.00571305,0.00386484,0.00167863,-0.02319204,0.01137914,0
 .00115947,0.22280513,-0.01061966,0.00381473,0.00002853,-0.00321192,-0.
 00344053,-0.00136013,-0.00083385,-0.00195834,-0.00101682,-0.00011036,0
 .00021916,-0.00015154,0.00104910,-0.02151375,-0.00218719,0.00217193,-0
 .00002786,-0.00121826,-0.00198993,-0.00011113,-0.00111460,-0.00263076,
 -0.00708727,0.00809917,0.00416212,-0.00459027,0.00156892,-0.00076454,-
 0.00187260,-0.00647195,0.00757924,-0.00871733,-0.00295433,-0.00563874,
 -0.01842990,0.00463303,-0.00576327,-0.01078854,-0.00676071,0.00145573,
 -0.00134247,-0.00012053,0.00312937,-0.00222738,-0.00148626,0.01195256,
 0.00121819,0.00209742,0.00006298,0.07685529,-0.00529989,0.00109166,-0.
 00175745,-0.00064556,-0.00171978,-0.00022948,-0.00038621,-0.00089524,0
 .00031025,-0.00014335,-0.00020121,0.00067114,-0.01899643,-0.00218678,-
 0.01942981,-0.00288397,-0.00125267,0.00050809,0.00230499,-0.00096292,0
 .00086685,0.00463775,0.00786540,-0.01529774,-0.00695429,0.00148544,-0.
 00571558,0.00649529,-0.00732592,-0.02023440,0.00215047,-0.00258358,-0.
 00254721,0.00430080,0.00654384,0.00081693,-0.00595521,-0.00816514,-0.0
 0763815,0.00047972,-0.00027671,-0.00035100,0.00144463,-0.00119929,0.00
 247699,0.00139791,0.00136766,0.00034557,0.01805334,0.00841524,0.067205
 01||-0.00000727,0.00001367,-0.00001831,-0.00000223,0.00000383,-0.00000
 313,-0.00000801,0.00000511,-0.00000005,-0.00001136,0.00002215,-0.00000
 472,-0.00001222,-0.00000072,0.00002452,0.00000102,-0.00000343,0.000003
 04,0.00001784,-0.00000794,0.00001009,-0.00000056,-0.00001238,-0.000010
 64,-0.00000954,-0.00001540,0.00000595,0.00001165,-0.00001330,-0.000001
 04,-0.00000996,-0.00001029,-0.00000489,0.00000709,-0.00001712,0.000003
 67,-0.00000590,-0.00001762,-0.00000389,0.00001062,0.00000519,0.0000032
 8,-0.00000328,0.00002299,-0.00000295,0.00001242,0.00000884,-0.00000556
 ,0.00000967,0.00001643,0.00000462|||@


 Luck is a matter of preparation meeting opportunity.
                                    -- Oprah Winfrey
 Job cpu time:  0 days  1 hours 15 minutes  4.0 seconds.
 File lengths (MBytes):  RWF=     75 Int=      0 D2E=      0 Chk=      4 Scr=      1
 Normal termination of Gaussian 09 at Thu Sep 30 15:14:34 2021.
